
     Program PWSCF v.6.8 starts on 28Apr2025 at 22:46:41 

     This program is part of the open-source Quantum ESPRESSO suite
     for quantum simulation of materials; please cite
         "P. Giannozzi et al., J. Phys.:Condens. Matter 21 395502 (2009);
         "P. Giannozzi et al., J. Phys.:Condens. Matter 29 465901 (2017);
         "P. Giannozzi et al., J. Chem. Phys. 152 154105 (2020);
          URL http://www.quantum-espresso.org", 
     in publications or presentations arising from this work. More details at
     http://www.quantum-espresso.org/quote

     Parallel version (MPI & OpenMP), running on      56 processor cores
     Number of MPI processes:                56
     Threads/MPI process:                     1

     MPI processes distributed on     1 nodes
     R & G space division:  proc/nbgrp/npool/nimage =      56
     186230 MiB available memory on the printing compute node when the environment starts
 
     Reading input from surface_relax.in
Warning: card &CELL ignored
Warning: card / ignored
Warning: card &FCP ignored
Warning: card / ignored
Warning: card &RISM ignored
Warning: card / ignored

     Current dimensions of program PWSCF are:
     Max number of different atomic species (ntypx) = 10
     Max number of k-points (npk) =  40000
     Max angular momentum in pseudopotentials (lmaxx) =  4

     Subspace diagonalization in iterative solution of the eigenvalue problem:
     one sub-group per band group will be used
     scalapack distributed-memory algorithm (size of sub-group:  7*  7 procs)

 
     Parallelization info
     --------------------
     sticks:   dense  smooth     PW     G-vecs:    dense   smooth      PW
     Min          20      20      5                 2517     2517     377
     Max          22      22      6                 2534     2534     406
     Sum        1129    1129    333               141555   141555   22001
 
     Using Slab Decomposition
 


     bravais-lattice index     =            0
     lattice parameter (alat)  =       7.7101  a.u.
     unit-cell volume          =    2257.6690 (a.u.)^3
     number of atoms/cell      =            8
     number of atomic types    =            1
     number of electrons       =       112.00
     number of Kohn-Sham states=           67
     kinetic-energy cutoff     =      60.0000  Ry
     charge density cutoff     =     240.0000  Ry
     scf convergence threshold =      1.0E-06
     mixing beta               =       0.4000
     number of iterations used =            8  plain     mixing
     energy convergence thresh.=      1.0E-04
     force convergence thresh. =      1.0E-03
     Exchange-correlation= PBE
                           (   1   4   3   4   0   0   0)
     nstep                     =          100


     celldm(1)=   7.710094  celldm(2)=   0.000000  celldm(3)=   0.000000
     celldm(4)=   0.000000  celldm(5)=   0.000000  celldm(6)=   0.000000

     crystal axes: (cart. coord. in units of alat)
               a(1) = (   1.000000   0.000000   0.000000 )  
               a(2) = (   0.000000   1.000000   0.000000 )  
               a(3) = (   0.000000   0.000000   4.925850 )  

     reciprocal axes: (cart. coord. in units 2 pi/alat)
               b(1) = (  1.000000  0.000000  0.000000 )  
               b(2) = (  0.000000  1.000000  0.000000 )  
               b(3) = (  0.000000  0.000000  0.203011 )  


     PseudoPot. # 1 for Ge read from file:
     ./Ge.upf
     MD5 check sum: 087fa14d6c89b52166990835c3b338da
     Pseudo is Norm-conserving + core correction, Zval = 14.0
     Generated using ONCVPSP code by D. R. Hamann
     Using radial grid of 1560 points,  6 beta functions with: 
                l(1) =   0
                l(2) =   0
                l(3) =   1
                l(4) =   1
                l(5) =   2
                l(6) =   2

     atomic species   valence    mass     pseudopotential
        Ge            14.00    72.63000     Ge( 1.00)

     No symmetry found



   Cartesian axes

     site n.     atom                  positions (alat units)
         1           Ge  tau(   1) = (   0.0027072   0.0043779   1.2222593  )
         2           Ge  tau(   2) = (   0.4951978  -0.0046035   1.5766236  )
         3           Ge  tau(   3) = (   0.4951223   0.4966025   1.9329339  )
         4           Ge  tau(   4) = (  -0.0041482   0.5041815   2.2895266  )
         5           Ge  tau(   5) = (   0.0034257   0.0043246   2.6383641  )
         6           Ge  tau(   6) = (   0.5020667  -0.0026282   2.9964966  )
         7           Ge  tau(   7) = (   0.5012759   0.5041407   3.3472343  )
         8           Ge  tau(   8) = (   0.0016097   0.4959221   3.7015793  )

     number of k points=    10  Gaussian smearing, width (Ry)=  0.0100
                       cart. coord. in units 2pi/alat
        k(    1) = (   0.0000000   0.0000000   0.0000000), wk =   0.1250000
        k(    2) = (   0.0000000   0.2500000   0.0000000), wk =   0.2500000
        k(    3) = (   0.0000000  -0.5000000   0.0000000), wk =   0.1250000
        k(    4) = (   0.2500000   0.2500000   0.0000000), wk =   0.2500000
        k(    5) = (   0.2500000  -0.5000000   0.0000000), wk =   0.2500000
        k(    6) = (  -0.5000000  -0.5000000   0.0000000), wk =   0.1250000
        k(    7) = (   0.2500000   0.0000000   0.0000000), wk =   0.2500000
        k(    8) = (  -0.5000000   0.0000000   0.0000000), wk =   0.1250000
        k(    9) = (  -0.2500000   0.2500000   0.0000000), wk =   0.2500000
        k(   10) = (  -0.5000000   0.2500000   0.0000000), wk =   0.2500000

     Dense  grid:   141555 G-vectors     FFT dimensions: (  40,  40, 192)

     Estimated max dynamical RAM per process >       8.44 MB

     Estimated total dynamical RAM >     472.56 MB

     Initial potential from superposition of free atoms

     starting charge  111.99342, renormalised to  112.00000

     negative rho (up, down):  5.574E-06 0.000E+00
     Starting wfcs are   72 randomized atomic wfcs

     total cpu time spent up to now is        0.8 secs

     Self-consistent Calculation

     iteration #  1     ecut=    60.00 Ry     beta= 0.40
     Davidson diagonalization with overlap
     ethr =  1.00E-02,  avg # of iterations =  3.3

     Threshold (ethr) on eigenvalues was too large:
     Diagonalizing with lowered threshold

     Davidson diagonalization with overlap
     ethr =  2.31E-04,  avg # of iterations =  5.5

     negative rho (up, down):  1.646E-06 0.000E+00

     total cpu time spent up to now is        3.2 secs

     total energy              =   -1428.57402874 Ry
     estimated scf accuracy    <       0.28350299 Ry

     iteration #  2     ecut=    60.00 Ry     beta= 0.40
     Davidson diagonalization with overlap
     ethr =  2.53E-04,  avg # of iterations =  8.5

     negative rho (up, down):  9.162E-07 0.000E+00

     total cpu time spent up to now is        4.7 secs

     total energy              =   -1428.39168094 Ry
     estimated scf accuracy    <       2.93167045 Ry

     iteration #  3     ecut=    60.00 Ry     beta= 0.40
     Davidson diagonalization with overlap
     ethr =  2.53E-04,  avg # of iterations =  6.6

     negative rho (up, down):  3.310E-08 0.000E+00

     total cpu time spent up to now is        6.0 secs

     total energy              =   -1428.63371416 Ry
     estimated scf accuracy    <       0.11996238 Ry

     iteration #  4     ecut=    60.00 Ry     beta= 0.40
     Davidson diagonalization with overlap
     ethr =  1.07E-04,  avg # of iterations =  9.5

     total cpu time spent up to now is        7.5 secs

     total energy              =   -1428.58001361 Ry
     estimated scf accuracy    <       1.86186117 Ry

     iteration #  5     ecut=    60.00 Ry     beta= 0.40
     Davidson diagonalization with overlap
     ethr =  1.07E-04,  avg # of iterations =  6.1

     total cpu time spent up to now is        8.7 secs

     total energy              =   -1428.64297899 Ry
     estimated scf accuracy    <       0.02191985 Ry

     iteration #  6     ecut=    60.00 Ry     beta= 0.40
     Davidson diagonalization with overlap
     ethr =  1.96E-05,  avg # of iterations =  5.2

     total cpu time spent up to now is        9.7 secs

     total energy              =   -1428.64424693 Ry
     estimated scf accuracy    <       0.00065087 Ry

     iteration #  7     ecut=    60.00 Ry     beta= 0.40
     Davidson diagonalization with overlap
     ethr =  5.81E-07,  avg # of iterations =  9.6

     total cpu time spent up to now is       11.3 secs

     total energy              =   -1428.64429281 Ry
     estimated scf accuracy    <       0.00030452 Ry

     iteration #  8     ecut=    60.00 Ry     beta= 0.40
     Davidson diagonalization with overlap
     ethr =  2.72E-07,  avg # of iterations =  2.1

     total cpu time spent up to now is       12.2 secs

     total energy              =   -1428.64432503 Ry
     estimated scf accuracy    <       0.00009402 Ry

     iteration #  9     ecut=    60.00 Ry     beta= 0.40
     Davidson diagonalization with overlap
     ethr =  8.39E-08,  avg # of iterations =  2.0

     total cpu time spent up to now is       13.0 secs

     total energy              =   -1428.64433608 Ry
     estimated scf accuracy    <       0.00000343 Ry

     iteration # 10     ecut=    60.00 Ry     beta= 0.40
     Davidson diagonalization with overlap
     ethr =  3.07E-09,  avg # of iterations =  4.1

     total cpu time spent up to now is       14.2 secs

     End of self-consistent calculation

          k = 0.0000 0.0000 0.0000 ( 17785 PWs)   bands (ev):

   -21.8624 -21.8538 -21.8388 -21.8164 -21.8146 -21.7943 -21.7793 -21.7784
   -21.7759 -21.7656 -21.7317 -21.7080 -21.6988 -21.6897 -21.6801 -21.6719
   -21.6420 -21.6322 -21.6288 -21.6243 -21.6232 -21.6201 -21.6115 -21.6100
   -21.6095 -21.5999 -21.5879 -21.5768 -21.5417 -21.5304 -21.4240 -21.4113
   -21.4069 -21.3954 -21.3764 -21.3725 -21.3606 -21.3549 -21.3355 -21.3197
    -9.0321  -8.3522  -7.3962  -6.0866  -4.5371  -2.6949  -0.7815   0.4499
     0.4525   1.1004   1.1505   1.1783   1.9482   2.1409   2.7806   3.2562
     3.9415   4.0180   4.3257   4.5029   4.6493   4.9477   5.0197   5.2165
     5.3672   6.2527   7.1828

          k = 0.0000 0.2500 0.0000 ( 17755 PWs)   bands (ev):

   -21.8657 -21.8594 -21.8500 -21.8225 -21.8011 -21.7914 -21.7813 -21.7734
   -21.7616 -21.7593 -21.7342 -21.7028 -21.6966 -21.6868 -21.6777 -21.6740
   -21.6492 -21.6447 -21.6433 -21.6341 -21.6203 -21.6109 -21.6094 -21.6077
   -21.6023 -21.5991 -21.5902 -21.5667 -21.5426 -21.5314 -21.4320 -21.4155
   -21.4026 -21.3882 -21.3749 -21.3702 -21.3571 -21.3545 -21.3346 -21.3186
    -8.5714  -7.9447  -7.1072  -6.2556  -4.3241  -3.1652  -2.0612  -1.1532
    -0.3394   0.8369   0.8444   1.4026   2.0649   2.1249   2.5943   2.6138
     2.9095   3.7497   4.4888   4.6826   4.7719   5.1028   6.5560   6.7179
     6.9062   7.5008   7.5376

          k = 0.0000-0.5000 0.0000 ( 17664 PWs)   bands (ev):

   -21.8660 -21.8610 -21.8352 -21.8330 -21.7906 -21.7818 -21.7803 -21.7650
   -21.7457 -21.7439 -21.7393 -21.7333 -21.6806 -21.6707 -21.6689 -21.6654
   -21.6633 -21.6601 -21.6413 -21.6314 -21.6196 -21.6093 -21.6057 -21.5977
   -21.5933 -21.5925 -21.5833 -21.5808 -21.5417 -21.5306 -21.4228 -21.4110
   -21.4080 -21.3944 -21.3733 -21.3616 -21.3555 -21.3465 -21.3337 -21.3177
    -7.4124  -7.4034  -7.0224  -6.9959  -3.9619  -3.9160  -2.8051  -2.7520
     0.0092   0.0548   1.7313   1.7385   1.7806   1.8531   2.0287   2.0515
     2.8152   2.8850   4.5722   4.5992   5.0679   5.0803   7.0782   7.1253
     7.2232   7.2334   8.0193

          k = 0.2500 0.2500 0.0000 ( 17713 PWs)   bands (ev):

   -21.8694 -21.8593 -21.8462 -21.8241 -21.7983 -21.7820 -21.7748 -21.7669
   -21.7549 -21.7350 -21.7291 -21.7092 -21.6957 -21.6940 -21.6851 -21.6755
   -21.6736 -21.6441 -21.6401 -21.6320 -21.6250 -21.6209 -21.6139 -21.6068
   -21.5947 -21.5853 -21.5780 -21.5602 -21.5279 -21.5171 -21.4368 -21.4197
   -21.4081 -21.3939 -21.3809 -21.3743 -21.3645 -21.3565 -21.3222 -21.3067
    -8.1039  -7.5057  -6.7160  -5.7371  -4.7248  -3.6473  -2.6341  -1.9064
    -0.6087  -0.5391   0.1851   0.4122   1.0675   1.4254   2.3899   2.4642
     3.1479   3.4968   5.2183   5.5693   6.1023   6.4181   6.8321   7.0571
     7.6286   7.6781   7.9533

          k = 0.2500-0.5000 0.0000 ( 17690 PWs)   bands (ev):

   -21.8683 -21.8643 -21.8342 -21.8308 -21.7899 -21.7744 -21.7622 -21.7559
   -21.7536 -21.7493 -21.7230 -21.7177 -21.6934 -21.6918 -21.6853 -21.6773
   -21.6644 -21.6624 -21.6420 -21.6323 -21.6252 -21.6161 -21.6108 -21.6053
   -21.5969 -21.5863 -21.5671 -21.5648 -21.5276 -21.5173 -21.4276 -21.4207
   -21.4112 -21.4068 -21.3776 -21.3742 -21.3599 -21.3582 -21.3185 -21.3030
    -6.9222  -6.9120  -6.5214  -6.4942  -4.2139  -4.1790  -3.3122  -3.2784
    -0.2856  -0.2813  -0.0265  -0.0195   0.7864   0.7905   2.2930   2.3512
     2.4625   2.5186   5.0499   5.0832   5.8658   5.8881   6.9842   7.0636
     7.4293   7.4889   8.3973

          k =-0.5000-0.5000 0.0000 ( 17620 PWs)   bands (ev):

   -21.8573 -21.8545 -21.8349 -21.8295 -21.7907 -21.7753 -21.7695 -21.7675
   -21.7461 -21.7314 -21.7126 -21.7025 -21.6859 -21.6851 -21.6831 -21.6816
   -21.6792 -21.6731 -21.6454 -21.6369 -21.6254 -21.6247 -21.6179 -21.6144
   -21.5725 -21.5629 -21.5556 -21.5536 -21.5307 -21.5199 -21.4389 -21.4222
   -21.4156 -21.4020 -21.3812 -21.3701 -21.3631 -21.3543 -21.3102 -21.2945
    -5.5956  -5.5926  -5.5736  -5.5294  -5.3628  -5.3436  -4.7201  -4.6947
    -0.2887  -0.2665  -0.2447  -0.2314   0.1719   0.2030   1.8808   1.9207
     2.3471   2.3814   4.5814   4.6092   5.2714   5.2954   6.1643   6.2242
     7.5813   7.6557   8.3322

          k = 0.2500 0.0000 0.0000 ( 17755 PWs)   bands (ev):

   -21.8706 -21.8510 -21.8440 -21.8186 -21.8051 -21.7980 -21.7866 -21.7690
   -21.7605 -21.7438 -21.7287 -21.7267 -21.6979 -21.6952 -21.6876 -21.6819
   -21.6442 -21.6398 -21.6339 -21.6288 -21.6234 -21.6224 -21.6191 -21.6123
   -21.5972 -21.5879 -21.5768 -21.5699 -21.5297 -21.5188 -21.4294 -21.4126
   -21.4094 -21.3935 -21.3877 -21.3747 -21.3707 -21.3570 -21.3245 -21.3090
    -8.5710  -7.9300  -7.0698  -5.5967  -4.9301  -3.4804  -2.2294  -1.0808
    -0.5639   0.3828   0.8335   1.4678   1.6219   2.0608   2.2009   2.7139
     4.1312   4.4732   4.6567   4.7981   4.9349   6.0654   6.4084   6.7156
     7.0222   7.4606   7.5611

          k =-0.5000 0.0000 0.0000 ( 17664 PWs)   bands (ev):

   -21.8582 -21.8458 -21.8356 -21.8168 -21.8114 -21.8090 -21.7891 -21.7565
   -21.7527 -21.7387 -21.7233 -21.7096 -21.7015 -21.6995 -21.6908 -21.6691
   -21.6444 -21.6412 -21.6404 -21.6314 -21.6254 -21.6248 -21.6239 -21.6139
   -21.5757 -21.5709 -21.5656 -21.5648 -21.5298 -21.5189 -21.4417 -21.4241
   -21.4064 -21.3907 -21.3740 -21.3731 -21.3580 -21.3554 -21.3248 -21.3086
    -7.4549  -7.3578  -7.2466  -5.1712  -5.1122  -3.9242  -3.7232  -3.4437
     0.0073   0.0792   1.2324   1.4089   1.6543   1.7751   1.8621   2.3438
     3.7087   4.3218   4.6736   4.9580   4.9795   6.7219   6.7730   6.9830
     7.1527   7.3236   7.4316

          k =-0.2500 0.2500 0.0000 ( 17713 PWs)   bands (ev):

   -21.8695 -21.8593 -21.8460 -21.8242 -21.7984 -21.7821 -21.7747 -21.7668
   -21.7549 -21.7349 -21.7292 -21.7092 -21.6957 -21.6940 -21.6851 -21.6756
   -21.6736 -21.6442 -21.6401 -21.6320 -21.6250 -21.6209 -21.6138 -21.6068
   -21.5947 -21.5853 -21.5780 -21.5601 -21.5279 -21.5171 -21.4368 -21.4198
   -21.4081 -21.3936 -21.3809 -21.3743 -21.3645 -21.3566 -21.3222 -21.3066
    -8.1039  -7.5057  -6.7160  -5.7372  -4.7249  -3.6472  -2.6341  -1.9068
    -0.6093  -0.5382   0.1849   0.4125   1.0674   1.4254   2.3902   2.4636
     3.1483   3.4967   5.2186   5.5681   6.1036   6.4191   6.8308   7.0576
     7.6259   7.6782   7.9537

          k =-0.5000 0.2500 0.0000 ( 17690 PWs)   bands (ev):

   -21.8581 -21.8559 -21.8387 -21.8231 -21.8021 -21.7984 -21.7845 -21.7481
   -21.7361 -21.7344 -21.7324 -21.7022 -21.6980 -21.6922 -21.6856 -21.6819
   -21.6663 -21.6648 -21.6434 -21.6331 -21.6256 -21.6250 -21.6195 -21.6147
   -21.5746 -21.5687 -21.5648 -21.5553 -21.5308 -21.5199 -21.4484 -21.4305
   -21.4068 -21.3927 -21.3780 -21.3728 -21.3602 -21.3568 -21.3194 -21.3033
    -6.9591  -6.8636  -6.7587  -4.9704  -4.9235  -4.1311  -4.0910  -3.9105
    -0.3437  -0.2051   0.1835   0.2266   0.5021   0.9273   1.9395   1.9668
     3.2668   3.4627   4.9232   5.2097   5.6539   5.7867   6.0136   6.8211
     7.6164   8.3470   8.5756

     the Fermi energy is     2.6196 ev

!    total energy              =   -1428.64433663 Ry
     estimated scf accuracy    <       0.00000055 Ry
     smearing contrib. (-TS)   =      -0.00306784 Ry
     internal energy E=F+TS    =   -1428.64126879 Ry

     The total energy is F=E-TS. E is the sum of the following terms:
     one-electron contribution =   -3823.92286153 Ry
     hartree contribution      =    1962.07372808 Ry
     xc contribution           =    -348.51082537 Ry
     ewald contribution        =     781.71869004 Ry

     convergence has been achieved in  10 iterations

     Forces acting on atoms (cartesian axes, Ry/au):

     atom    1 type  1   force =    -0.00790050    0.00026479   -0.00763428
     atom    2 type  1   force =     0.00758393    0.00123196    0.01050000
     atom    3 type  1   force =     0.00142393   -0.00084736   -0.00080166
     atom    4 type  1   force =     0.00000168   -0.00061028   -0.00034688
     atom    5 type  1   force =    -0.00265471   -0.00054825    0.00085008
     atom    6 type  1   force =     0.00169900    0.00832554   -0.00517843
     atom    7 type  1   force =     0.00016145   -0.00725521   -0.00600336
     atom    8 type  1   force =    -0.00031477   -0.00056119    0.00861452

     Total force =     0.023756     Total SCF correction =     0.002818
     SCF correction compared to forces is large: reduce conv_thr to get better values

     BFGS Geometry Optimization
     Energy error            =      0.0E+00 Ry
     Gradient error          =      1.0E-02 Ry/Bohr

     number of scf cycles    =   1
     number of bfgs steps    =   0

     energy             new  =   -1428.6443366338 Ry

     new trust radius        =       0.0130109095 bohr
     new conv_thr            =       0.0000010000 Ry


ATOMIC_POSITIONS (angstrom)
Ge            0.0068644616        0.0180019594        4.9827855387
Ge            2.0244234037       -0.0181303594        6.4381902731
Ge            2.0208555234        2.0256929623        7.8859579467
Ge           -0.0169239980        2.0567407782        9.3410989192
Ge            0.0125721788        0.0173541393       10.7649916664
Ge            2.0493341337       -0.0063175059       12.2229841237
Ge            2.0452942475        2.0530578580       13.6535595485
Ge            0.0064011815        2.0230684403       15.1070249779



     Writing output data file ./out/ge.save/
     NEW-OLD atomic charge density approx. for the potential

     total cpu time spent up to now is       14.4 secs

     Self-consistent Calculation

     iteration #  1     ecut=    60.00 Ry     beta= 0.40
     Davidson diagonalization with overlap
     ethr =  1.00E-06,  avg # of iterations =  4.0

     Threshold (ethr) on eigenvalues was too large:
     Diagonalizing with lowered threshold

     Davidson diagonalization with overlap
     ethr =  2.39E-08,  avg # of iterations =  4.0

     total cpu time spent up to now is       17.0 secs

     total energy              =   -1428.64482149 Ry
     estimated scf accuracy    <       0.00002817 Ry

     iteration #  2     ecut=    60.00 Ry     beta= 0.40
     Davidson diagonalization with overlap
     ethr =  2.52E-08,  avg # of iterations =  2.2

     total cpu time spent up to now is       17.9 secs

     total energy              =   -1428.64479310 Ry
     estimated scf accuracy    <       0.00077567 Ry

     iteration #  3     ecut=    60.00 Ry     beta= 0.40
     Davidson diagonalization with overlap
     ethr =  2.52E-08,  avg # of iterations =  1.9

     total cpu time spent up to now is       18.8 secs

     total energy              =   -1428.64482400 Ry
     estimated scf accuracy    <       0.00008524 Ry

     iteration #  4     ecut=    60.00 Ry     beta= 0.40
     Davidson diagonalization with overlap
     ethr =  2.52E-08,  avg # of iterations =  2.0

     total cpu time spent up to now is       19.6 secs

     total energy              =   -1428.64482794 Ry
     estimated scf accuracy    <       0.00002609 Ry

     iteration #  5     ecut=    60.00 Ry     beta= 0.40
     Davidson diagonalization with overlap
     ethr =  2.33E-08,  avg # of iterations =  1.4

     total cpu time spent up to now is       20.4 secs

     total energy              =   -1428.64483020 Ry
     estimated scf accuracy    <       0.00000254 Ry

     iteration #  6     ecut=    60.00 Ry     beta= 0.40
     Davidson diagonalization with overlap
     ethr =  2.26E-09,  avg # of iterations =  2.1

     total cpu time spent up to now is       21.3 secs

     End of self-consistent calculation

          k = 0.0000 0.0000 0.0000 ( 17785 PWs)   bands (ev):

   -21.8642 -21.8554 -21.8395 -21.8176 -21.8159 -21.7937 -21.7812 -21.7799
   -21.7785 -21.7670 -21.7334 -21.7089 -21.7000 -21.6883 -21.6816 -21.6730
   -21.6408 -21.6340 -21.6295 -21.6251 -21.6242 -21.6188 -21.6126 -21.6115
   -21.6070 -21.5982 -21.5878 -21.5777 -21.5388 -21.5303 -21.4204 -21.4073
   -21.4067 -21.3940 -21.3718 -21.3681 -21.3589 -21.3541 -21.3324 -21.3202
    -9.0336  -8.3476  -7.3831  -6.0795  -4.5383  -2.7036  -0.7873   0.4473
     0.4515   1.1127   1.1466   1.1760   1.9686   2.1459   2.7897   3.2507
     3.9480   4.0177   4.3220   4.5076   4.6599   4.9474   5.0170   5.2153
     5.3763   6.2484   7.1820

          k = 0.0000 0.2500 0.0000 ( 17755 PWs)   bands (ev):

   -21.8676 -21.8609 -21.8509 -21.8238 -21.8018 -21.7915 -21.7833 -21.7761
   -21.7630 -21.7608 -21.7358 -21.7040 -21.6970 -21.6861 -21.6791 -21.6753
   -21.6502 -21.6448 -21.6425 -21.6360 -21.6190 -21.6126 -21.6091 -21.6058
   -21.6030 -21.5980 -21.5905 -21.5676 -21.5395 -21.5313 -21.4281 -21.4148
   -21.3987 -21.3869 -21.3706 -21.3657 -21.3563 -21.3528 -21.3315 -21.3193
    -8.5728  -7.9394  -7.0928  -6.2485  -4.3243  -3.1727  -2.0717  -1.1560
    -0.3405   0.8378   0.8467   1.4137   2.0866   2.1200   2.6031   2.6164
     2.9025   3.7467   4.4988   4.6799   4.7901   5.0972   6.5556   6.7232
     6.9046   7.4880   7.5361

          k = 0.0000-0.5000 0.0000 ( 17664 PWs)   bands (ev):

   -21.8679 -21.8625 -21.8363 -21.8341 -21.7912 -21.7835 -21.7805 -21.7677
   -21.7471 -21.7445 -21.7409 -21.7358 -21.6790 -21.6721 -21.6701 -21.6663
   -21.6642 -21.6614 -21.6399 -21.6333 -21.6183 -21.6114 -21.6017 -21.5980
   -21.5937 -21.5921 -21.5841 -21.5820 -21.5388 -21.5307 -21.4188 -21.4081
   -21.4051 -21.3936 -21.3690 -21.3573 -21.3547 -21.3447 -21.3305 -21.3184
    -7.4153  -7.4073  -7.0043  -6.9799  -3.9542  -3.9221  -2.8125  -2.7719
     0.0188   0.0554   1.7294   1.7307   1.7826   1.8471   2.0542   2.0768
     2.8113   2.8738   4.5717   4.5925   5.0816   5.0939   7.0900   7.1208
     7.2271   7.2364   8.0052

          k = 0.2500 0.2500 0.0000 ( 17713 PWs)   bands (ev):

   -21.8713 -21.8607 -21.8473 -21.8256 -21.7983 -21.7845 -21.7764 -21.7681
   -21.7564 -21.7362 -21.7308 -21.7102 -21.6970 -21.6924 -21.6859 -21.6767
   -21.6747 -21.6444 -21.6395 -21.6336 -21.6247 -21.6207 -21.6153 -21.6075
   -21.5912 -21.5837 -21.5789 -21.5611 -21.5252 -21.5174 -21.4324 -21.4185
   -21.4038 -21.3919 -21.3770 -21.3700 -21.3638 -21.3557 -21.3196 -21.3077
    -8.1053  -7.5016  -6.7041  -5.7297  -4.7230  -3.6494  -2.6344  -1.9057
    -0.6062  -0.5422   0.1948   0.4112   1.0789   1.4299   2.3840   2.4586
     3.1515   3.4970   5.2144   5.5727   6.1030   6.4136   6.8226   7.0496
     7.6287   7.6754   7.9590

          k = 0.2500-0.5000 0.0000 ( 17690 PWs)   bands (ev):

   -21.8703 -21.8657 -21.8355 -21.8321 -21.7898 -21.7769 -21.7631 -21.7568
   -21.7556 -21.7512 -21.7241 -21.7194 -21.6946 -21.6925 -21.6839 -21.6782
   -21.6653 -21.6636 -21.6406 -21.6342 -21.6240 -21.6178 -21.6112 -21.6070
   -21.5926 -21.5844 -21.5679 -21.5660 -21.5250 -21.5176 -21.4228 -21.4168
   -21.4094 -21.4051 -21.3731 -21.3704 -21.3591 -21.3575 -21.3157 -21.3038
    -6.9248  -6.9157  -6.5044  -6.4793  -4.2093  -4.1839  -3.3134  -3.2878
    -0.2821  -0.2805  -0.0200  -0.0143   0.7957   0.7997   2.2917   2.3425
     2.4630   2.5139   5.0569   5.0794   5.8693   5.8875   6.9830   7.0522
     7.4236   7.4778   8.4018

          k =-0.5000-0.5000 0.0000 ( 17620 PWs)   bands (ev):

   -21.8590 -21.8557 -21.8368 -21.8312 -21.7908 -21.7779 -21.7706 -21.7690
   -21.7465 -21.7339 -21.7128 -21.7045 -21.6863 -21.6846 -21.6835 -21.6827
   -21.6795 -21.6742 -21.6443 -21.6386 -21.6249 -21.6238 -21.6196 -21.6165
   -21.5684 -21.5609 -21.5565 -21.5548 -21.5273 -21.5195 -21.4339 -21.4201
   -21.4118 -21.4004 -21.3767 -21.3674 -21.3621 -21.3551 -21.3074 -21.2953
    -5.5926  -5.5887  -5.5735  -5.5375  -5.3589  -5.3353  -4.7057  -4.6864
    -0.2858  -0.2643  -0.2452  -0.2350   0.1769   0.2036   1.8811   1.9143
     2.3528   2.3838   4.5895   4.6139   5.2732   5.2868   6.1630   6.2237
     7.5735   7.6385   8.3295

          k = 0.2500 0.0000 0.0000 ( 17755 PWs)   bands (ev):

   -21.8724 -21.8528 -21.8447 -21.8202 -21.8052 -21.7996 -21.7887 -21.7701
   -21.7621 -21.7451 -21.7304 -21.7279 -21.6966 -21.6957 -21.6887 -21.6832
   -21.6430 -21.6407 -21.6357 -21.6291 -21.6233 -21.6221 -21.6199 -21.6143
   -21.5938 -21.5862 -21.5772 -21.5708 -21.5270 -21.5191 -21.4252 -21.4114
   -21.4054 -21.3921 -21.3835 -21.3703 -21.3698 -21.3561 -21.3220 -21.3101
    -8.5726  -7.9268  -7.0598  -5.5889  -4.9275  -3.4810  -2.2249  -1.0798
    -0.5599   0.3931   0.8307   1.4646   1.6265   2.0608   2.2011   2.7104
     4.1310   4.4719   4.6487   4.8016   4.9368   6.0647   6.4018   6.7096
     7.0214   7.4621   7.5594

          k =-0.5000 0.0000 0.0000 ( 17664 PWs)   bands (ev):

   -21.8601 -21.8466 -21.8376 -21.8184 -21.8134 -21.8095 -21.7912 -21.7572
   -21.7531 -21.7409 -21.7246 -21.7104 -21.7018 -21.6990 -21.6916 -21.6701
   -21.6450 -21.6419 -21.6392 -21.6331 -21.6264 -21.6252 -21.6233 -21.6158
   -21.5720 -21.5716 -21.5657 -21.5639 -21.5263 -21.5183 -21.4368 -21.4223
   -21.4025 -21.3896 -21.3710 -21.3688 -21.3588 -21.3545 -21.3222 -21.3096
    -7.4548  -7.3571  -7.2499  -5.1577  -5.0981  -3.9146  -3.7271  -3.4325
     0.0039   0.0858   1.2380   1.4049   1.6555   1.7727   1.8485   2.3431
     3.7057   4.3223   4.6711   4.9652   4.9852   6.7215   6.7712   6.9677
     7.1567   7.3197   7.4159

          k =-0.2500 0.2500 0.0000 ( 17713 PWs)   bands (ev):

   -21.8713 -21.8607 -21.8472 -21.8256 -21.7983 -21.7846 -21.7763 -21.7680
   -21.7564 -21.7361 -21.7309 -21.7103 -21.6970 -21.6924 -21.6859 -21.6768
   -21.6747 -21.6444 -21.6395 -21.6337 -21.6247 -21.6207 -21.6153 -21.6074
   -21.5913 -21.5837 -21.5789 -21.5611 -21.5252 -21.5174 -21.4324 -21.4186
   -21.4038 -21.3917 -21.3770 -21.3700 -21.3638 -21.3557 -21.3196 -21.3076
    -8.1053  -7.5016  -6.7041  -5.7297  -4.7230  -3.6493  -2.6344  -1.9061
    -0.6066  -0.5416   0.1947   0.4114   1.0788   1.4299   2.3842   2.4581
     3.1517   3.4971   5.2146   5.5719   6.1039   6.4144   6.8215   7.0499
     7.6269   7.6754   7.9601

          k =-0.5000 0.2500 0.0000 ( 17690 PWs)   bands (ev):

   -21.8596 -21.8571 -21.8406 -21.8249 -21.8024 -21.8001 -21.7869 -21.7487
   -21.7373 -21.7365 -21.7335 -21.7024 -21.6990 -21.6911 -21.6865 -21.6833
   -21.6670 -21.6656 -21.6429 -21.6341 -21.6258 -21.6241 -21.6209 -21.6166
   -21.5707 -21.5696 -21.5631 -21.5562 -21.5274 -21.5194 -21.4435 -21.4288
   -21.4029 -21.3911 -21.3737 -21.3700 -21.3598 -21.3571 -21.3167 -21.3043
    -6.9591  -6.8626  -6.7610  -4.9565  -4.9086  -4.1237  -4.0931  -3.9038
    -0.3447  -0.2058   0.1808   0.2239   0.5041   0.9297   1.9378   1.9645
     3.2734   3.4674   4.9344   5.2051   5.6481   5.7847   6.0034   6.8353
     7.5975   8.3423   8.5751

     the Fermi energy is     2.6205 ev

!    total energy              =   -1428.64483045 Ry
     estimated scf accuracy    <       0.00000022 Ry
     smearing contrib. (-TS)   =      -0.00301820 Ry
     internal energy E=F+TS    =   -1428.64181225 Ry

     The total energy is F=E-TS. E is the sum of the following terms:
     one-electron contribution =   -3823.41107315 Ry
     hartree contribution      =    1961.82475320 Ry
     xc contribution           =    -348.50824618 Ry
     ewald contribution        =     781.45275389 Ry

     convergence has been achieved in   6 iterations

     Forces acting on atoms (cartesian axes, Ry/au):

     atom    1 type  1   force =    -0.00554127    0.00023510   -0.00621871
     atom    2 type  1   force =     0.00529304    0.00094771    0.00770747
     atom    3 type  1   force =     0.00106453   -0.00044017   -0.00009872
     atom    4 type  1   force =     0.00023537   -0.00058774    0.00025739
     atom    5 type  1   force =    -0.00193908   -0.00051655    0.00027650
     atom    6 type  1   force =     0.00101343    0.00571991   -0.00401138
     atom    7 type  1   force =     0.00010394   -0.00494638   -0.00480907
     atom    8 type  1   force =    -0.00022995   -0.00041188    0.00689652

     Total force =     0.017575     Total SCF correction =     0.002755
     SCF correction compared to forces is large: reduce conv_thr to get better values
     Energy error            =      4.9E-04 Ry
     Gradient error          =      7.7E-03 Ry/Bohr

     number of scf cycles    =   2
     number of bfgs steps    =   1

     energy             old  =   -1428.6443366338 Ry
     energy             new  =   -1428.6448304486 Ry

     CASE: energy            _new < energy            _old

     new trust radius        =       0.0143120005 bohr
     new conv_thr            =       0.0000000494 Ry


ATOMIC_POSITIONS (angstrom)
Ge            0.0023961886        0.0181907300        4.9777851014
Ge            2.0286919389       -0.0173675281        6.4443996916
Ge            2.0217128450        2.0253355141        7.8858707793
Ge           -0.0167380275        2.0562694544        9.3412982984
Ge            0.0110098341        0.0169397685       10.7652198437
Ge            2.0501542345       -0.0017032386       12.2197556861
Ge            2.0453782108        2.0490669576       13.6496914595
Ge            0.0062159077        2.0227366145       15.1125721344



     Writing output data file ./out/ge.save/
     NEW-OLD atomic charge density approx. for the potential

     total cpu time spent up to now is       21.5 secs

     Self-consistent Calculation

     iteration #  1     ecut=    60.00 Ry     beta= 0.40
     Davidson diagonalization with overlap
     ethr =  1.00E-06,  avg # of iterations =  4.0

     Threshold (ethr) on eigenvalues was too large:
     Diagonalizing with lowered threshold

     Davidson diagonalization with overlap
     ethr =  3.26E-08,  avg # of iterations =  4.0

     total cpu time spent up to now is       24.1 secs

     total energy              =   -1428.64521041 Ry
     estimated scf accuracy    <       0.00003875 Ry

     iteration #  2     ecut=    60.00 Ry     beta= 0.40
     Davidson diagonalization with overlap
     ethr =  3.46E-08,  avg # of iterations =  2.4

     total cpu time spent up to now is       25.0 secs

     total energy              =   -1428.64516014 Ry
     estimated scf accuracy    <       0.00149868 Ry

     iteration #  3     ecut=    60.00 Ry     beta= 0.40
     Davidson diagonalization with overlap
     ethr =  3.46E-08,  avg # of iterations =  2.1

     total cpu time spent up to now is       25.9 secs

     total energy              =   -1428.64521620 Ry
     estimated scf accuracy    <       0.00010335 Ry

     iteration #  4     ecut=    60.00 Ry     beta= 0.40
     Davidson diagonalization with overlap
     ethr =  3.46E-08,  avg # of iterations =  2.0

     total cpu time spent up to now is       26.7 secs

     total energy              =   -1428.64522333 Ry
     estimated scf accuracy    <       0.00001611 Ry

     iteration #  5     ecut=    60.00 Ry     beta= 0.40
     Davidson diagonalization with overlap
     ethr =  1.44E-08,  avg # of iterations =  1.7

     total cpu time spent up to now is       27.5 secs

     total energy              =   -1428.64522453 Ry
     estimated scf accuracy    <       0.00000157 Ry

     iteration #  6     ecut=    60.00 Ry     beta= 0.40
     Davidson diagonalization with overlap
     ethr =  1.40E-09,  avg # of iterations =  2.0

     total cpu time spent up to now is       28.4 secs

     total energy              =   -1428.64522478 Ry
     estimated scf accuracy    <       0.00000015 Ry

     iteration #  7     ecut=    60.00 Ry     beta= 0.40
     Davidson diagonalization with overlap
     ethr =  1.34E-10,  avg # of iterations =  2.9

     total cpu time spent up to now is       29.3 secs

     End of self-consistent calculation

          k = 0.0000 0.0000 0.0000 ( 17785 PWs)   bands (ev):

   -21.8653 -21.8562 -21.8405 -21.8185 -21.8167 -21.7912 -21.7816 -21.7809
   -21.7788 -21.7668 -21.7335 -21.7092 -21.7000 -21.6866 -21.6828 -21.6733
   -21.6395 -21.6358 -21.6298 -21.6258 -21.6252 -21.6170 -21.6139 -21.6133
   -21.6036 -21.5950 -21.5868 -21.5788 -21.5351 -21.5297 -21.4139 -21.4035
   -21.3996 -21.3889 -21.3639 -21.3604 -21.3537 -21.3497 -21.3270 -21.3184
    -9.0356  -8.3408  -7.3677  -6.0704  -4.5397  -2.7134  -0.7943   0.4440
     0.4503   1.1278   1.1415   1.1769   1.9934   2.1517   2.8014   3.2448
     3.9537   4.0171   4.3180   4.5131   4.6731   4.9476   5.0145   5.2149
     5.3869   6.2434   7.1807

          k = 0.0000 0.2500 0.0000 ( 17755 PWs)   bands (ev):

   -21.8688 -21.8616 -21.8519 -21.8249 -21.8018 -21.7897 -21.7837 -21.7766
   -21.7638 -21.7607 -21.7360 -21.7039 -21.6970 -21.6850 -21.6801 -21.6756
   -21.6511 -21.6451 -21.6411 -21.6381 -21.6173 -21.6142 -21.6102 -21.6042
   -21.6009 -21.5957 -21.5896 -21.5687 -21.5357 -21.5309 -21.4211 -21.4106
   -21.3916 -21.3821 -21.3628 -21.3578 -21.3518 -21.3476 -21.3261 -21.3174
    -8.5746  -7.9318  -7.0756  -6.2394  -4.3245  -3.1817  -2.0829  -1.1577
    -0.3428   0.8374   0.8516   1.4277   2.1040   2.1232   2.6150   2.6194
     2.8949   3.7437   4.5098   4.6769   4.8113   5.0909   6.5545   6.7303
     6.9021   7.4728   7.5364

          k = 0.0000-0.5000 0.0000 ( 17664 PWs)   bands (ev):

   -21.8691 -21.8633 -21.8375 -21.8352 -21.7911 -21.7841 -21.7786 -21.7681
   -21.7475 -21.7437 -21.7415 -21.7367 -21.6770 -21.6735 -21.6709 -21.6669
   -21.6646 -21.6619 -21.6384 -21.6353 -21.6166 -21.6133 -21.5984 -21.5969
   -21.5940 -21.5897 -21.5848 -21.5832 -21.5351 -21.5304 -21.4113 -21.4023
   -21.3985 -21.3895 -21.3612 -21.3503 -21.3495 -21.3395 -21.3250 -21.3165
    -7.4216  -7.4094  -6.9816  -6.9596  -3.9468  -3.9285  -2.8208  -2.7932
     0.0296   0.0567   1.7189   1.7299   1.7842   1.8402   2.0862   2.1084
     2.8067   2.8616   4.5706   4.5850   5.0982   5.1098   7.1013   7.1157
     7.2331   7.2415   7.9892

          k = 0.2500 0.2500 0.0000 ( 17713 PWs)   bands (ev):

   -21.8726 -21.8617 -21.8484 -21.8266 -21.7966 -21.7849 -21.7768 -21.7682
   -21.7563 -21.7360 -21.7312 -21.7110 -21.6970 -21.6905 -21.6862 -21.6773
   -21.6757 -21.6448 -21.6385 -21.6354 -21.6245 -21.6200 -21.6166 -21.6079
   -21.5864 -21.5815 -21.5790 -21.5621 -21.5219 -21.5176 -21.4249 -21.4139
   -21.3961 -21.3863 -21.3699 -21.3622 -21.3597 -21.3511 -21.3146 -21.3061
    -8.1072  -7.4954  -6.6900  -5.7202  -4.7207  -3.6515  -2.6339  -1.9044
    -0.6037  -0.5456   0.2074   0.4114   1.0922   1.4359   2.3773   2.4524
     3.1560   3.4977   5.2098   5.5779   6.1030   6.4070   6.8110   7.0408
     7.6280   7.6722   7.9656

          k = 0.2500-0.5000 0.0000 ( 17690 PWs)   bands (ev):

   -21.8717 -21.8665 -21.8366 -21.8333 -21.7880 -21.7776 -21.7627 -21.7564
   -21.7560 -21.7518 -21.7242 -21.7199 -21.6951 -21.6928 -21.6820 -21.6790
   -21.6658 -21.6644 -21.6392 -21.6364 -21.6225 -21.6193 -21.6112 -21.6084
   -21.5871 -21.5816 -21.5686 -21.5671 -21.5218 -21.5179 -21.4147 -21.4095
   -21.4041 -21.3998 -21.3653 -21.3637 -21.3548 -21.3533 -21.3105 -21.3020
    -6.9304  -6.9181  -6.4828  -6.4606  -4.2051  -4.1889  -3.3138  -3.2970
    -0.2801  -0.2775  -0.0116  -0.0074   0.8074   0.8113   2.2896   2.3330
     2.4638   2.5091   5.0650   5.0764   5.8712   5.8866   6.9804   7.0389
     7.4168   7.4653   8.4065

          k =-0.5000-0.5000 0.0000 ( 17620 PWs)   bands (ev):

   -21.8604 -21.8566 -21.8382 -21.8322 -21.7892 -21.7786 -21.7711 -21.7697
   -21.7450 -21.7342 -21.7119 -21.7050 -21.6867 -21.6854 -21.6838 -21.6828
   -21.6785 -21.6748 -21.6432 -21.6404 -21.6248 -21.6219 -21.6211 -21.6183
   -21.5633 -21.5586 -21.5572 -21.5559 -21.5233 -21.5187 -21.4253 -21.4142
   -21.4047 -21.3953 -21.3687 -21.3622 -21.3575 -21.3530 -21.3020 -21.2933
    -5.5954  -5.5886  -5.5710  -5.5446  -5.3488  -5.3239  -4.6881  -4.6738
    -0.2826  -0.2617  -0.2478  -0.2370   0.1838   0.2059   1.8814   1.9078
     2.3599   2.3873   4.5971   4.6185   5.2750   5.2785   6.1608   6.2223
     7.5635   7.6187   8.3251

          k = 0.2500 0.0000 0.0000 ( 17755 PWs)   bands (ev):

   -21.8737 -21.8537 -21.8458 -21.8213 -21.8037 -21.8003 -21.7886 -21.7696
   -21.7620 -21.7454 -21.7305 -21.7284 -21.6965 -21.6933 -21.6896 -21.6835
   -21.6421 -21.6415 -21.6373 -21.6292 -21.6238 -21.6219 -21.6193 -21.6161
   -21.5896 -21.5835 -21.5769 -21.5719 -21.5236 -21.5191 -21.4180 -21.4070
   -21.3980 -21.3871 -21.3760 -21.3655 -21.3625 -21.3515 -21.3171 -21.3087
    -8.5746  -7.9214  -7.0482  -5.5792  -4.9242  -3.4807  -2.2199  -1.0781
    -0.5547   0.4059   0.8271   1.4631   1.6322   2.0605   2.2022   2.7068
     4.1302   4.4694   4.6402   4.8066   4.9395   6.0636   6.3934   6.7018
     7.0223   7.4639   7.5569

          k =-0.5000 0.0000 0.0000 ( 17664 PWs)   bands (ev):

   -21.8614 -21.8477 -21.8389 -21.8193 -21.8141 -21.8083 -21.7910 -21.7585
   -21.7515 -21.7407 -21.7243 -21.7111 -21.7019 -21.6962 -21.6922 -21.6704
   -21.6461 -21.6417 -21.6380 -21.6351 -21.6273 -21.6261 -21.6214 -21.6173
   -21.5725 -21.5669 -21.5667 -21.5616 -21.5221 -21.5174 -21.4284 -21.4168
   -21.3954 -21.3848 -21.3657 -21.3609 -21.3569 -21.3499 -21.3170 -21.3078
    -7.4569  -7.3555  -7.2510  -5.1414  -5.0814  -3.9028  -3.7312  -3.4179
    -0.0000   0.0935   1.2437   1.4009   1.6543   1.7720   1.8370   2.3426
     3.7023   4.3214   4.6693   4.9738   4.9923   6.7195   6.7666   6.9483
     7.1638   7.3164   7.3969

          k =-0.2500 0.2500 0.0000 ( 17713 PWs)   bands (ev):

   -21.8727 -21.8617 -21.8483 -21.8266 -21.7966 -21.7850 -21.7767 -21.7682
   -21.7563 -21.7360 -21.7312 -21.7110 -21.6970 -21.6905 -21.6862 -21.6773
   -21.6758 -21.6448 -21.6385 -21.6354 -21.6245 -21.6200 -21.6165 -21.6079
   -21.5864 -21.5816 -21.5790 -21.5621 -21.5219 -21.5176 -21.4249 -21.4139
   -21.3961 -21.3862 -21.3699 -21.3622 -21.3597 -21.3512 -21.3146 -21.3061
    -8.1072  -7.4954  -6.6900  -5.7202  -4.7206  -3.6514  -2.6339  -1.9047
    -0.6038  -0.5452   0.2073   0.4114   1.0922   1.4359   2.3774   2.4520
     3.1561   3.4977   5.2099   5.5774   6.1036   6.4074   6.8104   7.0410
     7.6269   7.6722   7.9673

          k =-0.5000 0.2500 0.0000 ( 17690 PWs)   bands (ev):

   -21.8610 -21.8581 -21.8418 -21.8259 -21.8011 -21.8007 -21.7872 -21.7475
   -21.7375 -21.7365 -21.7340 -21.7018 -21.6997 -21.6891 -21.6868 -21.6839
   -21.6673 -21.6667 -21.6424 -21.6351 -21.6262 -21.6223 -21.6219 -21.6182
   -21.5704 -21.5659 -21.5607 -21.5572 -21.5232 -21.5185 -21.4351 -21.4233
   -21.3956 -21.3859 -21.3664 -21.3641 -21.3570 -21.3533 -21.3114 -21.3023
    -6.9613  -6.8605  -6.7614  -4.9399  -4.8912  -4.1134  -4.0958  -3.8936
    -0.3455  -0.2083   0.1783   0.2225   0.5074   0.9336   1.9360   1.9622
     3.2818   3.4734   4.9472   5.1980   5.6410   5.7835   5.9908   6.8518
     7.5749   8.3356   8.5742

     the Fermi energy is     2.6222 ev

!    total energy              =   -1428.64522480 Ry
     estimated scf accuracy    <       0.00000003 Ry
     smearing contrib. (-TS)   =      -0.00296199 Ry
     internal energy E=F+TS    =   -1428.64226281 Ry

     The total energy is F=E-TS. E is the sum of the following terms:
     one-electron contribution =   -3822.68809086 Ry
     hartree contribution      =    1961.46435499 Ry
     xc contribution           =    -348.50469637 Ry
     ewald contribution        =     781.08616944 Ry

     convergence has been achieved in   7 iterations

     Forces acting on atoms (cartesian axes, Ry/au):

     atom    1 type  1   force =    -0.00340013    0.00019245   -0.00434791
     atom    2 type  1   force =     0.00315057    0.00066100    0.00523855
     atom    3 type  1   force =     0.00075050   -0.00004174    0.00049508
     atom    4 type  1   force =     0.00045580   -0.00055829    0.00043172
     atom    5 type  1   force =    -0.00119889   -0.00049615   -0.00087263
     atom    6 type  1   force =     0.00032833    0.00315851   -0.00294922
     atom    7 type  1   force =     0.00005206   -0.00266884   -0.00336757
     atom    8 type  1   force =    -0.00013823   -0.00024694    0.00537199

     Total force =     0.011767     Total SCF correction =     0.000735
     Energy error            =      3.9E-04 Ry
     Gradient error          =      5.4E-03 Ry/Bohr

     number of scf cycles    =   3
     number of bfgs steps    =   2

     energy             old  =   -1428.6448304486 Ry
     energy             new  =   -1428.6452247977 Ry

     CASE: energy            _new < energy            _old

     new trust radius        =       0.0214680007 bohr
     new conv_thr            =       0.0000000394 Ry


ATOMIC_POSITIONS (angstrom)
Ge           -0.0040502129        0.0185180564        4.9699726669
Ge            2.0347371838       -0.0161763567        6.4539440242
Ge            2.0230616634        2.0250825693        7.8863819415
Ge           -0.0161121015        2.0553627680        9.3418922255
Ge            0.0087473615        0.0161360640       10.7643390902
Ge            2.0509991204        0.0045463894       12.2145380595
Ge            2.0454859011        2.0437336199       13.6436402305
Ge            0.0059522163        2.0222651621       15.1218847558



     Writing output data file ./out/ge.save/
     NEW-OLD atomic charge density approx. for the potential

     total cpu time spent up to now is       29.6 secs

     Self-consistent Calculation

     iteration #  1     ecut=    60.00 Ry     beta= 0.40
     Davidson diagonalization with overlap
     ethr =  1.00E-06,  avg # of iterations =  5.3

     Threshold (ethr) on eigenvalues was too large:
     Diagonalizing with lowered threshold

     Davidson diagonalization with overlap
     ethr =  7.96E-08,  avg # of iterations =  3.4

     total cpu time spent up to now is       32.3 secs

     total energy              =   -1428.64549543 Ry
     estimated scf accuracy    <       0.00009126 Ry

     iteration #  2     ecut=    60.00 Ry     beta= 0.40
     Davidson diagonalization with overlap
     c_bands:  1 eigenvalues not converged
     ethr =  8.15E-08,  avg # of iterations =  5.9

     total cpu time spent up to now is       33.5 secs

     total energy              =   -1428.64540704 Ry
     estimated scf accuracy    <       0.00230904 Ry

     iteration #  3     ecut=    60.00 Ry     beta= 0.40
     Davidson diagonalization with overlap
     ethr =  8.15E-08,  avg # of iterations =  2.2

     total cpu time spent up to now is       34.4 secs

     total energy              =   -1428.64550196 Ry
     estimated scf accuracy    <       0.00039641 Ry

     iteration #  4     ecut=    60.00 Ry     beta= 0.40
     Davidson diagonalization with overlap
     ethr =  8.15E-08,  avg # of iterations =  2.1

     total cpu time spent up to now is       35.2 secs

     total energy              =   -1428.64552462 Ry
     estimated scf accuracy    <       0.00004131 Ry

     iteration #  5     ecut=    60.00 Ry     beta= 0.40
     Davidson diagonalization with overlap
     ethr =  3.69E-08,  avg # of iterations =  1.4

     total cpu time spent up to now is       36.0 secs

     total energy              =   -1428.64552786 Ry
     estimated scf accuracy    <       0.00000219 Ry

     iteration #  6     ecut=    60.00 Ry     beta= 0.40
     Davidson diagonalization with overlap
     ethr =  1.95E-09,  avg # of iterations =  2.1

     total cpu time spent up to now is       36.9 secs

     total energy              =   -1428.64552814 Ry
     estimated scf accuracy    <       0.00000029 Ry

     iteration #  7     ecut=    60.00 Ry     beta= 0.40
     Davidson diagonalization with overlap
     ethr =  2.60E-10,  avg # of iterations =  2.9

     total cpu time spent up to now is       37.8 secs

     total energy              =   -1428.64552820 Ry
     estimated scf accuracy    <       0.00000012 Ry

     iteration #  8     ecut=    60.00 Ry     beta= 0.40
     Davidson diagonalization with overlap
     ethr =  1.05E-10,  avg # of iterations =  2.0

     total cpu time spent up to now is       38.7 secs

     End of self-consistent calculation

          k = 0.0000 0.0000 0.0000 ( 17785 PWs)   bands (ev):

   -21.8664 -21.8580 -21.8422 -21.8199 -21.8177 -21.7873 -21.7824 -21.7824
   -21.7806 -21.7669 -21.7342 -21.7098 -21.7002 -21.6863 -21.6840 -21.6740
   -21.6403 -21.6374 -21.6305 -21.6266 -21.6264 -21.6168 -21.6152 -21.6149
   -21.6014 -21.5898 -21.5849 -21.5799 -21.5316 -21.5291 -21.4044 -21.4007
   -21.3884 -21.3837 -21.3526 -21.3495 -21.3485 -21.3457 -21.3196 -21.3174
    -9.0396  -8.3302  -7.3449  -6.0557  -4.5431  -2.7286  -0.8062   0.4373
     0.4481   1.1325   1.1512   1.1798   2.0322   2.1590   2.8210   3.2359
     3.9588   4.0156   4.3112   4.5208   4.6930   4.9482   5.0106   5.2155
     5.4024   6.2346   7.1789

          k = 0.0000 0.2500 0.0000 ( 17755 PWs)   bands (ev):

   -21.8697 -21.8636 -21.8537 -21.8266 -21.8019 -21.7873 -21.7840 -21.7787
   -21.7650 -21.7608 -21.7367 -21.7041 -21.6975 -21.6850 -21.6811 -21.6763
   -21.6525 -21.6457 -21.6420 -21.6398 -21.6172 -21.6157 -21.6114 -21.6050
   -21.5988 -21.5907 -21.5877 -21.5697 -21.5315 -21.5308 -21.4108 -21.4068
   -21.3812 -21.3772 -21.3518 -21.3478 -21.3465 -21.3426 -21.3191 -21.3162
    -8.5783  -7.9204  -7.0499  -6.2246  -4.3264  -3.1970  -2.1006  -1.1601
    -0.3482   0.8355   0.8593   1.4489   2.0983   2.1607   2.6231   2.6356
     2.8836   3.7390   4.5248   4.6731   4.8427   5.0813   6.5510   6.7422
     6.8976   7.4482   7.5373

          k = 0.0000-0.5000 0.0000 ( 17664 PWs)   bands (ev):

   -21.8699 -21.8655 -21.8391 -21.8373 -21.7902 -21.7862 -21.7752 -21.7702
   -21.7473 -21.7435 -21.7422 -21.7390 -21.6763 -21.6748 -21.6712 -21.6687
   -21.6647 -21.6633 -21.6393 -21.6370 -21.6165 -21.6148 -21.5985 -21.5972
   -21.5881 -21.5873 -21.5854 -21.5843 -21.5313 -21.5305 -21.4002 -21.3961
   -21.3889 -21.3855 -21.3502 -21.3463 -21.3383 -21.3345 -21.3175 -21.3155
    -7.4314  -7.4136  -6.9452  -6.9296  -3.9395  -3.9381  -2.8355  -2.8242
     0.0448   0.0590   1.7055   1.7266   1.7849   1.8295   2.1376   2.1572
     2.7985   2.8428   4.5674   4.5743   5.1236   5.1334   7.1065   7.1138
     7.2458   7.2517   7.9637

          k = 0.2500 0.2500 0.0000 ( 17713 PWs)   bands (ev):

   -21.8742 -21.8636 -21.8501 -21.8283 -21.7938 -21.7868 -21.7775 -21.7684
   -21.7565 -21.7355 -21.7326 -21.7119 -21.6973 -21.6897 -21.6864 -21.6782
   -21.6771 -21.6456 -21.6396 -21.6369 -21.6250 -21.6203 -21.6175 -21.6086
   -21.5822 -21.5783 -21.5776 -21.5631 -21.5191 -21.5178 -21.4140 -21.4093
   -21.3849 -21.3805 -21.3599 -21.3559 -21.3510 -21.3470 -21.3078 -21.3056
    -8.1111  -7.4861  -6.6696  -5.7052  -4.7178  -3.6550  -2.6339  -1.9027
    -0.6010  -0.5506   0.2272   0.4123   1.1121   1.4457   2.3661   2.4420
     3.1625   3.4984   5.2024   5.5866   6.1013   6.3937   6.7918   7.0258
     7.6250   7.6677   7.9741

          k = 0.2500-0.5000 0.0000 ( 17690 PWs)   bands (ev):

   -21.8730 -21.8687 -21.8380 -21.8356 -21.7850 -21.7799 -21.7613 -21.7578
   -21.7557 -21.7534 -21.7241 -21.7216 -21.6955 -21.6940 -21.6809 -21.6797
   -21.6664 -21.6658 -21.6403 -21.6381 -21.6219 -21.6209 -21.6109 -21.6105
   -21.5797 -21.5789 -21.5689 -21.5685 -21.5193 -21.5181 -21.4030 -21.3992
   -21.3981 -21.3943 -21.3541 -21.3539 -21.3511 -21.3494 -21.3033 -21.3013
    -6.9396  -6.9226  -6.4483  -6.4332  -4.2009  -4.1979  -3.3145  -3.3114
    -0.2782  -0.2719   0.0012   0.0037   0.8258   0.8295   2.2846   2.3183
     2.4645   2.5021   5.0733   5.0770   5.8705   5.8848   6.9734   7.0176
     7.4049   7.4455   8.4126

          k =-0.5000-0.5000 0.0000 ( 17620 PWs)   bands (ev):

   -21.8620 -21.8588 -21.8394 -21.8348 -21.7863 -21.7810 -21.7721 -21.7710
   -21.7419 -21.7361 -21.7102 -21.7069 -21.6873 -21.6865 -21.6847 -21.6838
   -21.6766 -21.6760 -21.6438 -21.6422 -21.6245 -21.6239 -21.6212 -21.6197
   -21.5577 -21.5573 -21.5566 -21.5565 -21.5186 -21.5181 -21.4128 -21.4080
   -21.3941 -21.3899 -21.3575 -21.3551 -21.3532 -21.3514 -21.2944 -21.2922
    -5.6050  -5.5922  -5.5693  -5.5554  -5.3252  -5.3105  -4.6605  -4.6515
    -0.2784  -0.2595  -0.2535  -0.2374   0.1943   0.2102   1.8806   1.8986
     2.3705   2.3931   4.6057   4.6241   5.2675   5.2785   6.1561   6.2180
     7.5454   7.5875   8.3168

          k = 0.2500 0.0000 0.0000 ( 17755 PWs)   bands (ev):

   -21.8754 -21.8555 -21.8475 -21.8231 -21.8020 -21.8011 -21.7893 -21.7691
   -21.7624 -21.7458 -21.7312 -21.7293 -21.6969 -21.6918 -21.6905 -21.6842
   -21.6432 -21.6427 -21.6389 -21.6293 -21.6247 -21.6230 -21.6191 -21.6177
   -21.5862 -21.5785 -21.5758 -21.5730 -21.5208 -21.5192 -21.4078 -21.4027
   -21.3873 -21.3818 -21.3653 -21.3611 -21.3515 -21.3472 -21.3104 -21.3087
    -8.5789  -7.9132  -7.0317  -5.5640  -4.9197  -3.4794  -2.2135  -1.0754
    -0.5463   0.4263   0.8199   1.4612   1.6410   2.0588   2.2034   2.7011
     4.1276   4.4631   4.6264   4.8148   4.9438   6.0604   6.3783   6.6882
     7.0261   7.4656   7.5511

          k =-0.5000 0.0000 0.0000 ( 17664 PWs)   bands (ev):

   -21.8634 -21.8494 -21.8406 -21.8213 -21.8153 -21.8066 -21.7916 -21.7601
   -21.7486 -21.7420 -21.7239 -21.7122 -21.7028 -21.6940 -21.6928 -21.6712
   -21.6475 -21.6416 -21.6390 -21.6368 -21.6288 -21.6272 -21.6205 -21.6187
   -21.5733 -21.5679 -21.5603 -21.5595 -21.5172 -21.5165 -21.4161 -21.4112
   -21.3848 -21.3799 -21.3583 -21.3560 -21.3496 -21.3456 -21.3100 -21.3067
    -7.4631  -7.3539  -7.2522  -5.1164  -5.0566  -3.8847  -3.7357  -3.3942
    -0.0059   0.1044   1.2505   1.3949   1.6480   1.7710   1.8224   2.3418
     3.6956   4.3184   4.6662   4.9867   5.0031   6.7130   6.7544   6.9150
     7.1770   7.3146   7.3656

          k =-0.2500 0.2500 0.0000 ( 17713 PWs)   bands (ev):

   -21.8742 -21.8636 -21.8501 -21.8283 -21.7938 -21.7868 -21.7775 -21.7684
   -21.7565 -21.7354 -21.7327 -21.7119 -21.6973 -21.6897 -21.6864 -21.6781
   -21.6773 -21.6456 -21.6396 -21.6369 -21.6250 -21.6203 -21.6175 -21.6086
   -21.5822 -21.5782 -21.5776 -21.5631 -21.5191 -21.5178 -21.4140 -21.4093
   -21.3849 -21.3805 -21.3599 -21.3559 -21.3510 -21.3470 -21.3078 -21.3056
    -8.1111  -7.4861  -6.6696  -5.7052  -4.7177  -3.6550  -2.6339  -1.9029
    -0.6009  -0.5505   0.2273   0.4122   1.1121   1.4457   2.3661   2.4419
     3.1625   3.4985   5.2023   5.5866   6.1013   6.3938   6.7918   7.0258
     7.6245   7.6676   7.9766

          k =-0.5000 0.2500 0.0000 ( 17690 PWs)   bands (ev):

   -21.8627 -21.8602 -21.8433 -21.8280 -21.8020 -21.7990 -21.7885 -21.7451
   -21.7380 -21.7375 -21.7352 -21.7016 -21.7009 -21.6884 -21.6859 -21.6856
   -21.6680 -21.6679 -21.6433 -21.6368 -21.6267 -21.6237 -21.6215 -21.6195
   -21.5713 -21.5600 -21.5583 -21.5581 -21.5182 -21.5178 -21.4229 -21.4176
   -21.3849 -21.3804 -21.3582 -21.3558 -21.3537 -21.3491 -21.3042 -21.3011
    -6.9674  -6.8583  -6.7616  -4.9148  -4.8657  -4.0997  -4.0969  -3.8765
    -0.3479  -0.2152   0.1751   0.2207   0.5127   0.9400   1.9328   1.9583
     3.2948   3.4824   4.9655   5.1845   5.6302   5.7836   5.9695   6.8759
     7.5382   8.3233   8.5697

     the Fermi energy is     2.6253 ev

!    total energy              =   -1428.64552821 Ry
     estimated scf accuracy    <          8.8E-09 Ry
     smearing contrib. (-TS)   =      -0.00287662 Ry
     internal energy E=F+TS    =   -1428.64265159 Ry

     The total energy is F=E-TS. E is the sum of the following terms:
     one-electron contribution =   -3821.52557890 Ry
     hartree contribution      =    1960.88901226 Ry
     xc contribution           =    -348.49919198 Ry
     ewald contribution        =     780.49310703 Ry

     convergence has been achieved in   8 iterations

     Forces acting on atoms (cartesian axes, Ry/au):

     atom    1 type  1   force =    -0.00048964    0.00011577   -0.00181341
     atom    2 type  1   force =     0.00034589    0.00024349    0.00129241
     atom    3 type  1   force =     0.00030438    0.00048136    0.00122285
     atom    4 type  1   force =     0.00068272   -0.00049359    0.00075171
     atom    5 type  1   force =    -0.00018913   -0.00048634   -0.00186186
     atom    6 type  1   force =    -0.00060483   -0.00036757   -0.00130527
     atom    7 type  1   force =    -0.00003447    0.00054230   -0.00103658
     atom    8 type  1   force =    -0.00001490   -0.00003543    0.00275014

     Total force =     0.004834     Total SCF correction =     0.000455
     Energy error            =      3.0E-04 Ry
     Gradient error          =      2.8E-03 Ry/Bohr

     number of scf cycles    =   4
     number of bfgs steps    =   3

     energy             old  =   -1428.6452247977 Ry
     energy             new  =   -1428.6455282073 Ry

     CASE: energy            _new < energy            _old

     new trust radius        =       0.0090714597 bohr
     new conv_thr            =       0.0000000275 Ry


ATOMIC_POSITIONS (angstrom)
Ge           -0.0064474101        0.0186990028        4.9662664819
Ge            2.0369144474       -0.0156335370        6.4578377224
Ge            2.0236974638        2.0253230283        7.8873580234
Ge           -0.0154587128        2.0547432371        9.3425809678
Ge            0.0078971229        0.0155513116       10.7628296249
Ge            2.0508639047        0.0062988500       12.2120022810
Ge            2.0454964168        2.0423962812       13.6410368478
Ge            0.0058578994        2.0220900984       15.1266810451



     Writing output data file ./out/ge.save/
     NEW-OLD atomic charge density approx. for the potential

     total cpu time spent up to now is       38.9 secs

     Self-consistent Calculation

     iteration #  1     ecut=    60.00 Ry     beta= 0.40
     Davidson diagonalization with overlap
     ethr =  1.00E-06,  avg # of iterations =  4.0

     Threshold (ethr) on eigenvalues was too large:
     Diagonalizing with lowered threshold

     Davidson diagonalization with overlap
     ethr =  1.65E-08,  avg # of iterations =  4.1

     total cpu time spent up to now is       41.5 secs

     total energy              =   -1428.64556719 Ry
     estimated scf accuracy    <       0.00001746 Ry

     iteration #  2     ecut=    60.00 Ry     beta= 0.40
     Davidson diagonalization with overlap
     ethr =  1.56E-08,  avg # of iterations =  2.4

     total cpu time spent up to now is       42.4 secs

     total energy              =   -1428.64555200 Ry
     estimated scf accuracy    <       0.00037649 Ry

     iteration #  3     ecut=    60.00 Ry     beta= 0.40
     Davidson diagonalization with overlap
     ethr =  1.56E-08,  avg # of iterations =  1.9

     total cpu time spent up to now is       43.3 secs

     total energy              =   -1428.64556790 Ry
     estimated scf accuracy    <       0.00008914 Ry

     iteration #  4     ecut=    60.00 Ry     beta= 0.40
     Davidson diagonalization with overlap
     ethr =  1.56E-08,  avg # of iterations =  2.0

     total cpu time spent up to now is       44.1 secs

     total energy              =   -1428.64557269 Ry
     estimated scf accuracy    <       0.00000843 Ry

     iteration #  5     ecut=    60.00 Ry     beta= 0.40
     Davidson diagonalization with overlap
     ethr =  7.52E-09,  avg # of iterations =  1.3

     total cpu time spent up to now is       44.9 secs

     total energy              =   -1428.64557332 Ry
     estimated scf accuracy    <       0.00000041 Ry

     iteration #  6     ecut=    60.00 Ry     beta= 0.40
     Davidson diagonalization with overlap
     ethr =  3.70E-10,  avg # of iterations =  2.2

     total cpu time spent up to now is       45.8 secs

     total energy              =   -1428.64557337 Ry
     estimated scf accuracy    <       0.00000005 Ry

     iteration #  7     ecut=    60.00 Ry     beta= 0.40
     Davidson diagonalization with overlap
     ethr =  4.11E-11,  avg # of iterations =  3.2

     total cpu time spent up to now is       46.8 secs

     End of self-consistent calculation

          k = 0.0000 0.0000 0.0000 ( 17785 PWs)   bands (ev):

   -21.8669 -21.8589 -21.8440 -21.8211 -21.8184 -21.7852 -21.7835 -21.7824
   -21.7808 -21.7666 -21.7342 -21.7104 -21.7003 -21.6874 -21.6842 -21.6745
   -21.6419 -21.6380 -21.6310 -21.6277 -21.6271 -21.6182 -21.6160 -21.6152
   -21.6013 -21.5880 -21.5838 -21.5811 -21.5316 -21.5283 -21.4001 -21.3991
   -21.3832 -21.3813 -21.3477 -21.3460 -21.3446 -21.3437 -21.3172 -21.3161
    -9.0421  -8.3239  -7.3354  -6.0487  -4.5453  -2.7350  -0.8128   0.4330
     0.4470   1.1293   1.1624   1.1829   2.0495   2.1610   2.8307   3.2319
     3.9588   4.0149   4.3088   4.5242   4.7024   4.9492   5.0089   5.2170
     5.4079   6.2299   7.1780

          k = 0.0000 0.2500 0.0000 ( 17755 PWs)   bands (ev):

   -21.8700 -21.8648 -21.8555 -21.8280 -21.8020 -21.7867 -21.7831 -21.7791
   -21.7658 -21.7605 -21.7368 -21.7042 -21.6981 -21.6859 -21.6815 -21.6767
   -21.6536 -21.6464 -21.6438 -21.6402 -21.6185 -21.6158 -21.6122 -21.6058
   -21.5990 -21.5889 -21.5863 -21.5706 -21.5319 -21.5296 -21.4060 -21.4049
   -21.3764 -21.3749 -21.3471 -21.3457 -21.3414 -21.3404 -21.3169 -21.3147
    -8.5806  -7.9138  -7.0389  -6.2175  -4.3279  -3.2045  -2.1077  -1.1603
    -0.3526   0.8344   0.8629   1.4594   2.0938   2.1794   2.6243   2.6459
     2.8784   3.7371   4.5310   4.6719   4.8562   5.0771   6.5483   6.7485
     6.8948   7.4367   7.5391

          k = 0.0000-0.5000 0.0000 ( 17664 PWs)   bands (ev):

   -21.8699 -21.8670 -21.8406 -21.8393 -21.7896 -21.7874 -21.7731 -21.7707
   -21.7469 -21.7446 -21.7415 -21.7400 -21.6776 -21.6747 -21.6713 -21.6701
   -21.6649 -21.6643 -21.6411 -21.6375 -21.6179 -21.6149 -21.5989 -21.5984
   -21.5864 -21.5861 -21.5854 -21.5851 -21.5318 -21.5294 -21.3951 -21.3934
   -21.3845 -21.3836 -21.3452 -21.3444 -21.3333 -21.3323 -21.3150 -21.3142
    -7.4347  -7.4168  -6.9278  -6.9157  -3.9437  -3.9377  -2.8441  -2.8343
     0.0497   0.0608   1.7020   1.7235   1.7838   1.8254   2.1620   2.1792
     2.7935   2.8351   4.5648   4.5704   5.1351   5.1441   7.1032   7.1151
     7.2538   7.2582   7.9487

          k = 0.2500 0.2500 0.0000 ( 17713 PWs)   bands (ev):

   -21.8749 -21.8649 -21.8516 -21.8294 -21.7925 -21.7870 -21.7777 -21.7687
   -21.7563 -21.7351 -21.7332 -21.7126 -21.6975 -21.6902 -21.6865 -21.6792
   -21.6780 -21.6465 -21.6411 -21.6375 -21.6257 -21.6213 -21.6179 -21.6092
   -21.5826 -21.5769 -21.5758 -21.5639 -21.5198 -21.5170 -21.4093 -21.4069
   -21.3798 -21.3778 -21.3557 -21.3537 -21.3460 -21.3450 -21.3057 -21.3044
    -8.1136  -7.4805  -6.6611  -5.6981  -4.7168  -3.6563  -2.6340  -1.9019
    -0.6009  -0.5527   0.2371   0.4141   1.1199   1.4505   2.3608   2.4371
     3.1652   3.4986   5.1994   5.5918   6.0988   6.3852   6.7831   7.0187
     7.6220   7.6661   7.9773

          k = 0.2500-0.5000 0.0000 ( 17690 PWs)   bands (ev):

   -21.8733 -21.8703 -21.8392 -21.8375 -21.7833 -21.7808 -21.7603 -21.7585
   -21.7554 -21.7542 -21.7240 -21.7226 -21.6957 -21.6948 -21.6819 -21.6796
   -21.6672 -21.6667 -21.6421 -21.6386 -21.6231 -21.6208 -21.6119 -21.6111
   -21.5781 -21.5771 -21.5695 -21.5692 -21.5201 -21.5174 -21.3977 -21.3963
   -21.3935 -21.3918 -21.3498 -21.3496 -21.3486 -21.3474 -21.3007 -21.3001
    -6.9428  -6.9259  -6.4319  -6.4204  -4.2023  -4.2008  -3.3166  -3.3148
    -0.2766  -0.2699   0.0066   0.0094   0.8342   0.8378   2.2812   2.3124
     2.4641   2.4995   5.0747   5.0819   5.8680   5.8818   6.9684   7.0089
     7.3982   7.4367   8.4139

          k =-0.5000-0.5000 0.0000 ( 17620 PWs)   bands (ev):

   -21.8629 -21.8607 -21.8396 -21.8364 -21.7845 -21.7819 -21.7730 -21.7720
   -21.7397 -21.7368 -21.7094 -21.7077 -21.6882 -21.6875 -21.6856 -21.6850
   -21.6775 -21.6755 -21.6456 -21.6426 -21.6255 -21.6247 -21.6224 -21.6196
   -21.5585 -21.5579 -21.5561 -21.5544 -21.5187 -21.5166 -21.4071 -21.4051
   -21.3891 -21.3875 -21.3532 -21.3521 -21.3511 -21.3497 -21.2916 -21.2911
    -5.6104  -5.5966  -5.5691  -5.5587  -5.3124  -5.3040  -4.6479  -4.6406
    -0.2769  -0.2598  -0.2548  -0.2382   0.1991   0.2136   1.8797   1.8957
     2.3751   2.3962   4.6067   4.6247   5.2662   5.2800   6.1524   6.2144
     7.5355   7.5744   8.3110

          k = 0.2500 0.0000 0.0000 ( 17755 PWs)   bands (ev):

   -21.8762 -21.8563 -21.8494 -21.8242 -21.8022 -21.8008 -21.7888 -21.7688
   -21.7622 -21.7462 -21.7312 -21.7299 -21.6971 -21.6928 -21.6901 -21.6845
   -21.6447 -21.6438 -21.6397 -21.6299 -21.6256 -21.6239 -21.6203 -21.6176
   -21.5860 -21.5766 -21.5749 -21.5741 -21.5213 -21.5184 -21.4035 -21.4004
   -21.3825 -21.3791 -21.3607 -21.3588 -21.3468 -21.3449 -21.3085 -21.3075
    -8.5816  -7.9079  -7.0252  -5.5570  -4.9179  -3.4777  -2.2120  -1.0739
    -0.5420   0.4360   0.8152   1.4627   1.6447   2.0576   2.2029   2.6983
     4.1254   4.4597   4.6211   4.8185   4.9456   6.0584   6.3703   6.6813
     7.0298   7.4664   7.5474

          k =-0.5000 0.0000 0.0000 ( 17664 PWs)   bands (ev):

   -21.8647 -21.8513 -21.8414 -21.8223 -21.8155 -21.8059 -21.7913 -21.7617
   -21.7468 -21.7420 -21.7234 -21.7133 -21.7027 -21.6948 -21.6922 -21.6719
   -21.6490 -21.6419 -21.6408 -21.6375 -21.6301 -21.6277 -21.6215 -21.6187
   -21.5741 -21.5689 -21.5592 -21.5578 -21.5172 -21.5151 -21.4105 -21.4087
   -21.3801 -21.3775 -21.3555 -21.3547 -21.3446 -21.3436 -21.3078 -21.3052
    -7.4692  -7.3521  -7.2504  -5.1050  -5.0455  -3.8774  -3.7359  -3.3835
    -0.0075   0.1080   1.2527   1.3926   1.6401   1.7715   1.8206   2.3415
     3.6920   4.3150   4.6660   4.9923   5.0082   6.7076   6.7484   6.8987
     7.1822   7.3170   7.3507

          k =-0.2500 0.2500 0.0000 ( 17713 PWs)   bands (ev):

   -21.8750 -21.8649 -21.8516 -21.8294 -21.7925 -21.7870 -21.7777 -21.7686
   -21.7563 -21.7350 -21.7334 -21.7127 -21.6975 -21.6902 -21.6865 -21.6790
   -21.6781 -21.6465 -21.6411 -21.6375 -21.6257 -21.6212 -21.6179 -21.6092
   -21.5826 -21.5769 -21.5758 -21.5639 -21.5198 -21.5170 -21.4093 -21.4069
   -21.3798 -21.3778 -21.3557 -21.3537 -21.3460 -21.3449 -21.3057 -21.3044
    -8.1136  -7.4805  -6.6611  -5.6981  -4.7167  -3.6564  -2.6340  -1.9021
    -0.6008  -0.5526   0.2372   0.4140   1.1200   1.4505   2.3607   2.4371
     3.1652   3.4987   5.1993   5.5919   6.0988   6.3852   6.7833   7.0186
     7.6216   7.6658   7.9799

          k =-0.5000 0.2500 0.0000 ( 17690 PWs)   bands (ev):

   -21.8638 -21.8620 -21.8440 -21.8290 -21.8026 -21.7980 -21.7884 -21.7437
   -21.7386 -21.7377 -21.7357 -21.7019 -21.7014 -21.6890 -21.6866 -21.6854
   -21.6691 -21.6686 -21.6445 -21.6379 -21.6274 -21.6246 -21.6226 -21.6195
   -21.5721 -21.5591 -21.5588 -21.5566 -21.5183 -21.5162 -21.4175 -21.4147
   -21.3799 -21.3779 -21.3553 -21.3544 -21.3492 -21.3466 -21.3019 -21.2996
    -6.9733  -6.8564  -6.7596  -4.9035  -4.8545  -4.1008  -4.0893  -3.8682
    -0.3487  -0.2214   0.1746   0.2214   0.5154   0.9432   1.9315   1.9562
     3.3011   3.4865   4.9722   5.1759   5.6267   5.7851   5.9585   6.8854
     7.5214   8.3163   8.5665

     the Fermi energy is     2.6267 ev

!    total energy              =   -1428.64557336 Ry
     estimated scf accuracy    <       0.00000003 Ry
     smearing contrib. (-TS)   =      -0.00283978 Ry
     internal energy E=F+TS    =   -1428.64273358 Ry

     The total energy is F=E-TS. E is the sum of the following terms:
     one-electron contribution =   -3820.78099074 Ry
     hartree contribution      =    1960.51946872 Ry
     xc contribution           =    -348.49652520 Ry
     ewald contribution        =     780.11531363 Ry

     convergence has been achieved in   7 iterations

     Forces acting on atoms (cartesian axes, Ry/au):

     atom    1 type  1   force =     0.00049611    0.00008533   -0.00071007
     atom    2 type  1   force =    -0.00053684    0.00016881   -0.00021858
     atom    3 type  1   force =     0.00019013    0.00058754    0.00122738
     atom    4 type  1   force =     0.00065819   -0.00045208    0.00063995
     atom    5 type  1   force =     0.00007257   -0.00047652   -0.00173259
     atom    6 type  1   force =    -0.00083276   -0.00130958   -0.00061280
     atom    7 type  1   force =    -0.00005885    0.00137998   -0.00010515
     atom    8 type  1   force =     0.00001145    0.00001652    0.00151185

     Total force =     0.003779     Total SCF correction =     0.001049
     SCF correction compared to forces is large: reduce conv_thr to get better values
     Energy error            =      4.5E-05 Ry
     Gradient error          =      1.7E-03 Ry/Bohr

     number of scf cycles    =   5
     number of bfgs steps    =   4

     energy             old  =   -1428.6455282073 Ry
     energy             new  =   -1428.6455733613 Ry

     CASE: energy            _new < energy            _old

     new trust radius        =       0.0051188534 bohr
     new conv_thr            =       0.0000000100 Ry


ATOMIC_POSITIONS (angstrom)
Ge           -0.0070358065        0.0188194533        4.9644616816
Ge            2.0374022174       -0.0153186403        6.4591324633
Ge            2.0240591598        2.0257770375        7.8884725554
Ge           -0.0148097618        2.0542284362        9.3432167973
Ge            0.0076181774        0.0150314390       10.7612154437
Ge            2.0502952572        0.0061499915       12.2106814786
Ge            2.0454633232        2.0427473202       13.6400235046
Ge            0.0058285655        2.0220332349       15.1293890699



     Writing output data file ./out/ge.save/
     NEW-OLD atomic charge density approx. for the potential

     total cpu time spent up to now is       47.0 secs

     Self-consistent Calculation

     iteration #  1     ecut=    60.00 Ry     beta= 0.40
     Davidson diagonalization with overlap
     ethr =  1.00E-06,  avg # of iterations =  3.0

     Threshold (ethr) on eigenvalues was too large:
     Diagonalizing with lowered threshold

     Davidson diagonalization with overlap
     ethr =  4.74E-09,  avg # of iterations =  4.2

     total cpu time spent up to now is       49.5 secs

     total energy              =   -1428.64559081 Ry
     estimated scf accuracy    <       0.00000346 Ry

     iteration #  2     ecut=    60.00 Ry     beta= 0.40
     Davidson diagonalization with overlap
     ethr =  3.09E-09,  avg # of iterations =  2.4

     total cpu time spent up to now is       50.4 secs

     total energy              =   -1428.64558986 Ry
     estimated scf accuracy    <       0.00001904 Ry

     iteration #  3     ecut=    60.00 Ry     beta= 0.40
     Davidson diagonalization with overlap
     ethr =  3.09E-09,  avg # of iterations =  2.3

     total cpu time spent up to now is       51.3 secs

     total energy              =   -1428.64559098 Ry
     estimated scf accuracy    <       0.00001007 Ry

     iteration #  4     ecut=    60.00 Ry     beta= 0.40
     Davidson diagonalization with overlap
     ethr =  3.09E-09,  avg # of iterations =  1.3

     total cpu time spent up to now is       52.1 secs

     total energy              =   -1428.64559128 Ry
     estimated scf accuracy    <       0.00001187 Ry

     iteration #  5     ecut=    60.00 Ry     beta= 0.40
     Davidson diagonalization with overlap
     ethr =  3.09E-09,  avg # of iterations =  1.5

     total cpu time spent up to now is       52.9 secs

     total energy              =   -1428.64559182 Ry
     estimated scf accuracy    <       0.00000035 Ry

     iteration #  6     ecut=    60.00 Ry     beta= 0.40
     Davidson diagonalization with overlap
     ethr =  3.14E-10,  avg # of iterations =  2.0

     total cpu time spent up to now is       53.7 secs

     total energy              =   -1428.64559186 Ry
     estimated scf accuracy    <       0.00000003 Ry

     iteration #  7     ecut=    60.00 Ry     beta= 0.40
     Davidson diagonalization with overlap
     ethr =  2.91E-11,  avg # of iterations =  2.0

     total cpu time spent up to now is       54.6 secs

     End of self-consistent calculation

          k = 0.0000 0.0000 0.0000 ( 17785 PWs)   bands (ev):

   -21.8673 -21.8592 -21.8458 -21.8221 -21.8190 -21.7844 -21.7842 -21.7822
   -21.7800 -21.7662 -21.7339 -21.7108 -21.7003 -21.6877 -21.6842 -21.6748
   -21.6424 -21.6383 -21.6315 -21.6287 -21.6277 -21.6185 -21.6169 -21.6152
   -21.6015 -21.5871 -21.5831 -21.5822 -21.5314 -21.5279 -21.3982 -21.3975
   -21.3809 -21.3794 -21.3456 -21.3441 -21.3425 -21.3419 -21.3162 -21.3148
    -9.0437  -8.3192  -7.3316  -6.0453  -4.5465  -2.7373  -0.8167   0.4302
     0.4463   1.1286   1.1688   1.1859   2.0571   2.1610   2.8355   3.2303
     3.9575   4.0146   4.3084   4.5258   4.7074   4.9502   5.0081   5.2187
     5.4091   6.2273   7.1776

          k = 0.0000 0.2500 0.0000 ( 17755 PWs)   bands (ev):

   -21.8704 -21.8652 -21.8573 -21.8292 -21.8022 -21.7864 -21.7825 -21.7786
   -21.7665 -21.7601 -21.7366 -21.7042 -21.6985 -21.6861 -21.6817 -21.6770
   -21.6546 -21.6469 -21.6444 -21.6406 -21.6189 -21.6160 -21.6127 -21.6064
   -21.5994 -21.5880 -21.5854 -21.5714 -21.5318 -21.5290 -21.4039 -21.4031
   -21.3743 -21.3731 -21.3450 -21.3438 -21.3392 -21.3386 -21.3158 -21.3135
    -8.5820  -7.9093  -7.0342  -6.2141  -4.3289  -3.2082  -2.1101  -1.1595
    -0.3561   0.8338   0.8648   1.4653   2.0917   2.1879   2.6247   2.6509
     2.8759   3.7365   4.5338   4.6715   4.8622   5.0751   6.5465   6.7522
     6.8929   7.4313   7.5415

          k = 0.0000-0.5000 0.0000 ( 17664 PWs)   bands (ev):

   -21.8702 -21.8675 -21.8421 -21.8410 -21.7896 -21.7876 -21.7720 -21.7700
   -21.7470 -21.7449 -21.7414 -21.7400 -21.6780 -21.6747 -21.6720 -21.6708
   -21.6654 -21.6647 -21.6417 -21.6378 -21.6183 -21.6149 -21.5995 -21.5991
   -21.5868 -21.5858 -21.5857 -21.5842 -21.5317 -21.5289 -21.3928 -21.3915
   -21.3825 -21.3819 -21.3430 -21.3426 -21.3311 -21.3305 -21.3139 -21.3129
    -7.4354  -7.4191  -6.9190  -6.9088  -3.9451  -3.9396  -2.8475  -2.8372
     0.0506   0.0623   1.7020   1.7212   1.7822   1.8245   2.1741   2.1890
     2.7902   2.8323   4.5631   4.5691   5.1405   5.1492   7.1028   7.1131
     7.2588   7.2623   7.9428

          k = 0.2500 0.2500 0.0000 ( 17713 PWs)   bands (ev):

   -21.8755 -21.8659 -21.8528 -21.8303 -21.7919 -21.7864 -21.7777 -21.7689
   -21.7560 -21.7350 -21.7331 -21.7132 -21.6975 -21.6904 -21.6866 -21.6801
   -21.6784 -21.6472 -21.6417 -21.6379 -21.6261 -21.6216 -21.6180 -21.6097
   -21.5831 -21.5763 -21.5747 -21.5647 -21.5198 -21.5167 -21.4071 -21.4050
   -21.3775 -21.3759 -21.3539 -21.3519 -21.3439 -21.3431 -21.3047 -21.3032
    -8.1152  -7.4764  -6.6576  -5.6947  -4.7165  -3.6566  -2.6338  -1.9013
    -0.6016  -0.5534   0.2427   0.4162   1.1225   1.4529   2.3583   2.4347
     3.1663   3.4987   5.1986   5.5953   6.0964   6.3794   6.7794   7.0154
     7.6196   7.6656   7.9787

          k = 0.2500-0.5000 0.0000 ( 17690 PWs)   bands (ev):

   -21.8738 -21.8711 -21.8403 -21.8388 -21.7825 -21.7804 -21.7600 -21.7584
   -21.7554 -21.7542 -21.7241 -21.7229 -21.6960 -21.6952 -21.6823 -21.6796
   -21.6678 -21.6673 -21.6427 -21.6389 -21.6235 -21.6210 -21.6124 -21.6116
   -21.5775 -21.5760 -21.5700 -21.5697 -21.5202 -21.5171 -21.3953 -21.3943
   -21.3912 -21.3900 -21.3481 -21.3477 -21.3466 -21.3456 -21.2997 -21.2988
    -6.9436  -6.9282  -6.4236  -6.4139  -4.2041  -4.2025  -3.3173  -3.3148
    -0.2752  -0.2692   0.0093   0.0121   0.8380   0.8415   2.2791   2.3104
     2.4633   2.4987   5.0778   5.0838   5.8655   5.8782   6.9649   7.0062
     7.3940   7.4330   8.4133

          k =-0.5000-0.5000 0.0000 ( 17620 PWs)   bands (ev):

   -21.8640 -21.8620 -21.8399 -21.8370 -21.7837 -21.7814 -21.7737 -21.7727
   -21.7387 -21.7362 -21.7092 -21.7077 -21.6890 -21.6882 -21.6864 -21.6857
   -21.6777 -21.6753 -21.6462 -21.6429 -21.6261 -21.6253 -21.6227 -21.6196
   -21.5592 -21.5586 -21.5556 -21.5535 -21.5186 -21.5160 -21.4045 -21.4030
   -21.3870 -21.3857 -21.3516 -21.3504 -21.3493 -21.3481 -21.2904 -21.2897
    -5.6135  -5.6008  -5.5681  -5.5590  -5.3061  -5.2994  -4.6418  -4.6357
    -0.2764  -0.2599  -0.2550  -0.2395   0.2015   0.2163   1.8793   1.8956
     2.3771   2.3981   4.6049   4.6232   5.2687   5.2809   6.1493   6.2115
     7.5299   7.5697   8.3065

          k = 0.2500 0.0000 0.0000 ( 17755 PWs)   bands (ev):

   -21.8768 -21.8566 -21.8512 -21.8250 -21.8025 -21.8006 -21.7880 -21.7686
   -21.7618 -21.7466 -21.7309 -21.7302 -21.6973 -21.6930 -21.6900 -21.6847
   -21.6453 -21.6448 -21.6401 -21.6304 -21.6263 -21.6245 -21.6207 -21.6176
   -21.5862 -21.5759 -21.5752 -21.5741 -21.5214 -21.5181 -21.4015 -21.3985
   -21.3803 -21.3771 -21.3586 -21.3569 -21.3448 -21.3430 -21.3075 -21.3064
    -8.5834  -7.9037  -7.0228  -5.5536  -4.9172  -3.4758  -2.2123  -1.0729
    -0.5398   0.4408   0.8121   1.4659   1.6462   2.0570   2.2018   2.6969
     4.1237   4.4583   4.6199   4.8200   4.9464   6.0575   6.3661   6.6779
     7.0329   7.4669   7.5452

          k =-0.5000 0.0000 0.0000 ( 17664 PWs)   bands (ev):

   -21.8655 -21.8530 -21.8418 -21.8226 -21.8154 -21.8055 -21.7905 -21.7632
   -21.7459 -21.7413 -21.7230 -21.7144 -21.7022 -21.6950 -21.6920 -21.6724
   -21.6503 -21.6422 -21.6414 -21.6379 -21.6310 -21.6281 -21.6218 -21.6187
   -21.5747 -21.5699 -21.5587 -21.5568 -21.5170 -21.5144 -21.4080 -21.4066
   -21.3779 -21.3756 -21.3543 -21.3533 -21.3424 -21.3418 -21.3066 -21.3040
    -7.4748  -7.3498  -7.2475  -5.0994  -5.0403  -3.8750  -3.7343  -3.3792
    -0.0070   0.1084   1.2533   1.3920   1.6322   1.7737   1.8229   2.3415
     3.6901   4.3118   4.6672   4.9952   5.0108   6.7037   6.7464   6.8909
     7.1829   7.3209   7.3436

          k =-0.2500 0.2500 0.0000 ( 17713 PWs)   bands (ev):

   -21.8755 -21.8659 -21.8528 -21.8302 -21.7919 -21.7863 -21.7777 -21.7689
   -21.7560 -21.7349 -21.7333 -21.7132 -21.6975 -21.6904 -21.6866 -21.6800
   -21.6785 -21.6473 -21.6417 -21.6379 -21.6262 -21.6216 -21.6180 -21.6097
   -21.5831 -21.5763 -21.5747 -21.5647 -21.5198 -21.5167 -21.4071 -21.4050
   -21.3775 -21.3759 -21.3539 -21.3519 -21.3439 -21.3431 -21.3047 -21.3032
    -8.1152  -7.4764  -6.6576  -5.6947  -4.7164  -3.6566  -2.6338  -1.9015
    -0.6015  -0.5533   0.2428   0.4160   1.1225   1.4529   2.3583   2.4347
     3.1663   3.4987   5.1986   5.5953   6.0964   6.3794   6.7796   7.0153
     7.6191   7.6653   7.9812

          k =-0.5000 0.2500 0.0000 ( 17690 PWs)   bands (ev):

   -21.8650 -21.8632 -21.8444 -21.8295 -21.8029 -21.7975 -21.7877 -21.7430
   -21.7395 -21.7371 -21.7357 -21.7027 -21.7012 -21.6894 -21.6870 -21.6852
   -21.6701 -21.6692 -21.6449 -21.6383 -21.6279 -21.6253 -21.6228 -21.6195
   -21.5728 -21.5598 -21.5584 -21.5557 -21.5181 -21.5155 -21.4150 -21.4125
   -21.3778 -21.3760 -21.3541 -21.3530 -21.3472 -21.3447 -21.3007 -21.2983
    -6.9786  -6.8540  -6.7568  -4.8980  -4.8492  -4.1008  -4.0861  -3.8643
    -0.3485  -0.2268   0.1753   0.2233   0.5169   0.9449   1.9313   1.9550
     3.3045   3.4886   4.9739   5.1700   5.6265   5.7872   5.9525   6.8883
     7.5141   8.3121   8.5658

     the Fermi energy is     2.6274 ev

!    total energy              =   -1428.64559186 Ry
     estimated scf accuracy    <          3.7E-09 Ry
     smearing contrib. (-TS)   =      -0.00282448 Ry
     internal energy E=F+TS    =   -1428.64276738 Ry

     The total energy is F=E-TS. E is the sum of the following terms:
     one-electron contribution =   -3820.20013123 Ry
     hartree contribution      =    1960.23025146 Ry
     xc contribution           =    -348.49508534 Ry
     ewald contribution        =     779.82219773 Ry

     convergence has been achieved in   7 iterations

     Forces acting on atoms (cartesian axes, Ry/au):

     atom    1 type  1   force =     0.00069476    0.00007024   -0.00020355
     atom    2 type  1   force =    -0.00074672    0.00021739   -0.00062995
     atom    3 type  1   force =     0.00024581    0.00052145    0.00090968
     atom    4 type  1   force =     0.00056145   -0.00042902    0.00032474
     atom    5 type  1   force =     0.00003094   -0.00046130   -0.00131380
     atom    6 type  1   force =    -0.00074884   -0.00115815   -0.00027486
     atom    7 type  1   force =    -0.00004385    0.00121419    0.00027591
     atom    8 type  1   force =     0.00000645    0.00002519    0.00091183

     Total force =     0.003098     Total SCF correction =     0.000162
     Energy error            =      1.8E-05 Ry
     Gradient error          =      1.3E-03 Ry/Bohr

     number of scf cycles    =   6
     number of bfgs steps    =   5

     energy             old  =   -1428.6455733613 Ry
     energy             new  =   -1428.6455918598 Ry

     CASE: energy            _new < energy            _old

     new trust radius        =       0.0056307387 bohr
     new conv_thr            =       0.0000000100 Ry


ATOMIC_POSITIONS (angstrom)
Ge           -0.0069315220        0.0189774780        4.9628338162
Ge            2.0371631757       -0.0148670696        6.4596526090
Ge            2.0245782751        2.0265889950        7.8901350200
Ge           -0.0138027146        2.0534376175        9.3439820694
Ge            0.0074052325        0.0142081318       10.7587890899
Ge            2.0491985990        0.0050720076       12.2093777919
Ge            2.0454008597        2.0440425402       13.6394540342
Ge            0.0058092267        2.0220085716       15.1323685637



     Writing output data file ./out/ge.save/
     NEW-OLD atomic charge density approx. for the potential

     total cpu time spent up to now is       54.8 secs

     Self-consistent Calculation

     iteration #  1     ecut=    60.00 Ry     beta= 0.40
     Davidson diagonalization with overlap
     ethr =  1.00E-06,  avg # of iterations =  3.6

     Threshold (ethr) on eigenvalues was too large:
     Diagonalizing with lowered threshold

     Davidson diagonalization with overlap
     ethr =  5.32E-09,  avg # of iterations =  4.0

     total cpu time spent up to now is       57.4 secs

     total energy              =   -1428.64560879 Ry
     estimated scf accuracy    <       0.00000398 Ry

     iteration #  2     ecut=    60.00 Ry     beta= 0.40
     Davidson diagonalization with overlap
     ethr =  3.56E-09,  avg # of iterations =  2.2

     total cpu time spent up to now is       58.3 secs

     total energy              =   -1428.64560447 Ry
     estimated scf accuracy    <       0.00012323 Ry

     iteration #  3     ecut=    60.00 Ry     beta= 0.40
     Davidson diagonalization with overlap
     ethr =  3.56E-09,  avg # of iterations =  1.9

     total cpu time spent up to now is       59.1 secs

     total energy              =   -1428.64560929 Ry
     estimated scf accuracy    <       0.00000710 Ry

     iteration #  4     ecut=    60.00 Ry     beta= 0.40
     Davidson diagonalization with overlap
     ethr =  3.56E-09,  avg # of iterations =  2.0

     total cpu time spent up to now is       60.0 secs

     total energy              =   -1428.64560972 Ry
     estimated scf accuracy    <       0.00000379 Ry

     iteration #  5     ecut=    60.00 Ry     beta= 0.40
     Davidson diagonalization with overlap
     ethr =  3.38E-09,  avg # of iterations =  1.4

     total cpu time spent up to now is       60.8 secs

     total energy              =   -1428.64561003 Ry
     estimated scf accuracy    <       0.00000012 Ry

     iteration #  6     ecut=    60.00 Ry     beta= 0.40
     Davidson diagonalization with overlap
     ethr =  1.03E-10,  avg # of iterations =  2.5

     total cpu time spent up to now is       61.7 secs

     End of self-consistent calculation

          k = 0.0000 0.0000 0.0000 ( 17785 PWs)   bands (ev):

   -21.8678 -21.8596 -21.8486 -21.8237 -21.8199 -21.7857 -21.7827 -21.7818
   -21.7788 -21.7657 -21.7335 -21.7113 -21.7004 -21.6875 -21.6849 -21.6752
   -21.6424 -21.6391 -21.6322 -21.6302 -21.6287 -21.6181 -21.6181 -21.6159
   -21.6021 -21.5861 -21.5840 -21.5826 -21.5308 -21.5279 -21.3962 -21.3954
   -21.3786 -21.3772 -21.3434 -21.3419 -21.3404 -21.3397 -21.3147 -21.3135
    -9.0456  -8.3134  -7.3289  -6.0424  -4.5479  -2.7386  -0.8210   0.4268
     0.4456   1.1284   1.1755   1.1906   2.0631   2.1603   2.8396   3.2289
     3.9551   4.0144   4.3089   4.5273   4.7126   4.9515   5.0074   5.2210
     5.4085   6.2247   7.1772

          k = 0.0000 0.2500 0.0000 ( 17755 PWs)   bands (ev):

   -21.8708 -21.8659 -21.8600 -21.8309 -21.8026 -21.7859 -21.7814 -21.7777
   -21.7675 -21.7595 -21.7364 -21.7042 -21.6992 -21.6861 -21.6823 -21.6774
   -21.6561 -21.6477 -21.6442 -21.6415 -21.6186 -21.6167 -21.6135 -21.6075
   -21.6002 -21.5869 -21.5848 -21.5727 -21.5310 -21.5292 -21.4018 -21.4010
   -21.3722 -21.3711 -21.3429 -21.3416 -21.3371 -21.3364 -21.3144 -21.3122
    -8.5837  -7.9037  -7.0306  -6.2112  -4.3301  -3.2115  -2.1110  -1.1578
    -0.3607   0.8332   0.8666   1.4716   2.0900   2.1947   2.6248   2.6552
     2.8735   3.7363   4.5362   4.6710   4.8670   5.0732   6.5446   6.7559
     6.8906   7.4267   7.5451

          k = 0.0000-0.5000 0.0000 ( 17664 PWs)   bands (ev):

   -21.8703 -21.8686 -21.8444 -21.8435 -21.7894 -21.7881 -21.7705 -21.7689
   -21.7470 -21.7455 -21.7412 -21.7398 -21.6777 -21.6754 -21.6727 -21.6720
   -21.6660 -21.6655 -21.6415 -21.6387 -21.6179 -21.6156 -21.6004 -21.6001
   -21.5878 -21.5868 -21.5845 -21.5836 -21.5310 -21.5291 -21.3905 -21.3895
   -21.3806 -21.3799 -21.3409 -21.3404 -21.3291 -21.3284 -21.3124 -21.3117
    -7.4348  -7.4225  -6.9105  -6.9024  -3.9460  -3.9430  -2.8498  -2.8378
     0.0497   0.0642   1.7042   1.7174   1.7797   1.8246   2.1855   2.1969
     2.7862   2.8306   4.5610   4.5683   5.1453   5.1540   7.1036   7.1089
     7.2641   7.2667   7.9388

          k = 0.2500 0.2500 0.0000 ( 17713 PWs)   bands (ev):

   -21.8762 -21.8675 -21.8544 -21.8315 -21.7911 -21.7854 -21.7776 -21.7693
   -21.7555 -21.7350 -21.7330 -21.7141 -21.6975 -21.6903 -21.6872 -21.6815
   -21.6789 -21.6483 -21.6417 -21.6388 -21.6268 -21.6217 -21.6186 -21.6105
   -21.5840 -21.5753 -21.5742 -21.5659 -21.5192 -21.5170 -21.4049 -21.4027
   -21.3753 -21.3738 -21.3519 -21.3499 -21.3418 -21.3409 -21.3032 -21.3020
    -8.1171  -7.4710  -6.6551  -5.6918  -4.7164  -3.6564  -2.6334  -1.9008
    -0.6030  -0.5540   0.2485   0.4192   1.1235   1.4551   2.3562   2.4324
     3.1671   3.4986   5.1984   5.5994   6.0929   6.3725   6.7766   7.0126
     7.6163   7.6654   7.9800

          k = 0.2500-0.5000 0.0000 ( 17690 PWs)   bands (ev):

   -21.8742 -21.8726 -21.8419 -21.8409 -21.7815 -21.7799 -21.7595 -21.7584
   -21.7553 -21.7544 -21.7243 -21.7233 -21.6964 -21.6957 -21.6821 -21.6803
   -21.6687 -21.6682 -21.6425 -21.6399 -21.6233 -21.6217 -21.6131 -21.6125
   -21.5766 -21.5757 -21.5708 -21.5705 -21.5196 -21.5175 -21.3930 -21.3921
   -21.3890 -21.3879 -21.3461 -21.3458 -21.3444 -21.3434 -21.2981 -21.2977
    -6.9432  -6.9316  -6.4155  -6.4078  -4.2059  -4.2049  -3.3164  -3.3142
    -0.2734  -0.2691   0.0119   0.0142   0.8412   0.8445   2.2768   2.3094
     2.4620   2.4984   5.0829   5.0850   5.8615   5.8731   6.9609   7.0053
     7.3893   7.4302   8.4115

          k =-0.5000-0.5000 0.0000 ( 17620 PWs)   bands (ev):

   -21.8653 -21.8640 -21.8400 -21.8382 -21.7824 -21.7807 -21.7747 -21.7739
   -21.7372 -21.7354 -21.7090 -21.7077 -21.6902 -21.6893 -21.6875 -21.6870
   -21.6774 -21.6757 -21.6462 -21.6440 -21.6268 -21.6262 -21.6223 -21.6202
   -21.5602 -21.5598 -21.5546 -21.5532 -21.5178 -21.5160 -21.4019 -21.4006
   -21.3848 -21.3838 -21.3497 -21.3489 -21.3472 -21.3461 -21.2888 -21.2885
    -5.6171  -5.6071  -5.5653  -5.5584  -5.2996  -5.2939  -4.6363  -4.6315
    -0.2762  -0.2595  -0.2552  -0.2419   0.2036   0.2197   1.8793   1.8966
     2.3787   2.4002   4.6006   4.6201   5.2741   5.2816   6.1449   6.2075
     7.5241   7.5671   8.3008

          k = 0.2500 0.0000 0.0000 ( 17755 PWs)   bands (ev):

   -21.8775 -21.8570 -21.8539 -21.8262 -21.8031 -21.8003 -21.7868 -21.7685
   -21.7612 -21.7471 -21.7309 -21.7302 -21.6974 -21.6926 -21.6905 -21.6850
   -21.6465 -21.6453 -21.6408 -21.6312 -21.6275 -21.6254 -21.6204 -21.6183
   -21.5868 -21.5769 -21.5748 -21.5738 -21.5208 -21.5184 -21.3993 -21.3964
   -21.3781 -21.3750 -21.3565 -21.3548 -21.3426 -21.3408 -21.3060 -21.3054
    -8.5854  -7.8981  -7.0214  -5.5508  -4.9167  -3.4732  -2.2138  -1.0720
    -0.5376   0.4452   0.8084   1.4714   1.6472   2.0563   2.2002   2.6953
     4.1214   4.4575   4.6201   4.8211   4.9470   6.0567   6.3622   6.6746
     7.0369   7.4676   7.5427

          k =-0.5000 0.0000 0.0000 ( 17664 PWs)   bands (ev):

   -21.8667 -21.8557 -21.8424 -21.8230 -21.8152 -21.8050 -21.7894 -21.7655
   -21.7448 -21.7403 -21.7223 -21.7159 -21.7016 -21.6945 -21.6925 -21.6734
   -21.6524 -21.6427 -21.6415 -21.6389 -21.6325 -21.6288 -21.6214 -21.6192
   -21.5757 -21.5715 -21.5577 -21.5564 -21.5162 -21.5145 -21.4054 -21.4042
   -21.3757 -21.3734 -21.3526 -21.3519 -21.3403 -21.3395 -21.3051 -21.3027
    -7.4825  -7.3458  -7.2427  -5.0943  -5.0357  -3.8743  -3.7315  -3.3763
    -0.0053   0.1073   1.2533   1.3920   1.6210   1.7785   1.8281   2.3415
     3.6882   4.3072   4.6698   4.9978   5.0132   6.6989   6.7457   6.8839
     7.1816   7.3268   7.3372

          k =-0.2500 0.2500 0.0000 ( 17713 PWs)   bands (ev):

   -21.8763 -21.8675 -21.8544 -21.8315 -21.7911 -21.7853 -21.7776 -21.7693
   -21.7555 -21.7349 -21.7331 -21.7141 -21.6975 -21.6903 -21.6872 -21.6815
   -21.6789 -21.6483 -21.6417 -21.6388 -21.6268 -21.6216 -21.6185 -21.6105
   -21.5841 -21.5752 -21.5742 -21.5659 -21.5192 -21.5170 -21.4048 -21.4027
   -21.3753 -21.3738 -21.3519 -21.3499 -21.3418 -21.3409 -21.3032 -21.3020
    -8.1171  -7.4710  -6.6551  -5.6918  -4.7163  -3.6564  -2.6334  -1.9010
    -0.6030  -0.5539   0.2485   0.4192   1.1235   1.4551   2.3561   2.4324
     3.1671   3.4986   5.1984   5.5993   6.0930   6.3724   6.7768   7.0125
     7.6158   7.6652   7.9821

          k =-0.5000 0.2500 0.0000 ( 17690 PWs)   bands (ev):

   -21.8671 -21.8647 -21.8449 -21.8301 -21.8032 -21.7967 -21.7866 -21.7421
   -21.7412 -21.7361 -21.7358 -21.7040 -21.7009 -21.6898 -21.6870 -21.6855
   -21.6716 -21.6702 -21.6451 -21.6391 -21.6286 -21.6264 -21.6224 -21.6201
   -21.5738 -21.5611 -21.5575 -21.5554 -21.5173 -21.5155 -21.4125 -21.4101
   -21.3756 -21.3739 -21.3524 -21.3516 -21.3450 -21.3425 -21.2992 -21.2969
    -6.9859  -6.8501  -6.7522  -4.8930  -4.8446  -4.1005  -4.0837  -3.8611
    -0.3476  -0.2340   0.1768   0.2267   0.5183   0.9463   1.9315   1.9536
     3.3079   3.4905   4.9738   5.1628   5.6277   5.7902   5.9463   6.8891
     7.5082   8.3074   8.5661

     the Fermi energy is     2.6278 ev

!    total energy              =   -1428.64561004 Ry
     estimated scf accuracy    <          9.8E-09 Ry
     smearing contrib. (-TS)   =      -0.00281360 Ry
     internal energy E=F+TS    =   -1428.64279644 Ry

     The total energy is F=E-TS. E is the sum of the following terms:
     one-electron contribution =   -3819.34915595 Ry
     hartree contribution      =    1959.80585223 Ry
     xc contribution           =    -348.49361673 Ry
     ewald contribution        =     779.39412400 Ry

     convergence has been achieved in   6 iterations

     Forces acting on atoms (cartesian axes, Ry/au):

     atom    1 type  1   force =     0.00061840    0.00004837    0.00021150
     atom    2 type  1   force =    -0.00065624    0.00034301   -0.00070429
     atom    3 type  1   force =     0.00037592    0.00034624    0.00022343
     atom    4 type  1   force =     0.00037578   -0.00040130   -0.00012904
     atom    5 type  1   force =    -0.00017496   -0.00042437   -0.00043518
     atom    6 type  1   force =    -0.00049166   -0.00043544    0.00004965
     atom    7 type  1   force =    -0.00001917    0.00051568    0.00050027
     atom    8 type  1   force =    -0.00002808    0.00000781    0.00028367

     Total force =     0.001880     Total SCF correction =     0.000213
     SCF correction compared to forces is large: reduce conv_thr to get better values
     Energy error            =      1.8E-05 Ry
     Gradient error          =      7.0E-04 Ry/Bohr

     bfgs converged in   7 scf cycles and   6 bfgs steps
     (criteria: energy <  1.0E-04 Ry, force <  1.0E-03 Ry/Bohr)

     End of BFGS Geometry Optimization

     Final energy             =   -1428.6456100421 Ry

     File ./out/ge.bfgs deleted, as requested
Begin final coordinates

ATOMIC_POSITIONS (angstrom)
Ge           -0.0069315220        0.0189774780        4.9628338162
Ge            2.0371631757       -0.0148670696        6.4596526090
Ge            2.0245782751        2.0265889950        7.8901350200
Ge           -0.0138027146        2.0534376175        9.3439820694
Ge            0.0074052325        0.0142081318       10.7587890899
Ge            2.0491985990        0.0050720076       12.2093777919
Ge            2.0454008597        2.0440425402       13.6394540342
Ge            0.0058092267        2.0220085716       15.1323685637
End final coordinates



     Writing output data file ./out/ge.save/
 
     init_run     :      0.32s CPU      0.56s WALL (       1 calls)
     electrons    :     44.47s CPU     59.57s WALL (       7 calls)
     update_pot   :      0.17s CPU      0.19s WALL (       6 calls)
     forces       :      0.79s CPU      1.23s WALL (       7 calls)

     Called by init_run:
     wfcinit      :      0.27s CPU      0.44s WALL (       1 calls)
     potinit      :      0.01s CPU      0.03s WALL (       1 calls)
     hinit0       :      0.02s CPU      0.06s WALL (       1 calls)

     Called by electrons:
     c_bands      :     39.42s CPU     53.74s WALL (      58 calls)
     sum_band     :      4.79s CPU      5.37s WALL (      58 calls)
     v_of_rho     :      0.20s CPU      0.28s WALL (      58 calls)
     mix_rho      :      0.05s CPU      0.06s WALL (      58 calls)

     Called by c_bands:
     init_us_2    :      0.40s CPU      0.47s WALL (    1240 calls)
     cegterg      :     37.31s CPU     51.27s WALL (     580 calls)

     Called by *egterg:
     cdiaghg      :      7.83s CPU     16.64s WALL (    2309 calls)
     h_psi        :     22.89s CPU     26.30s WALL (    2449 calls)
     g_psi        :      0.08s CPU      0.09s WALL (    1859 calls)

     Called by h_psi:
     h_psi:calbec :      1.52s CPU      1.92s WALL (    2449 calls)
     vloc_psi     :     20.31s CPU     23.22s WALL (    2449 calls)
     add_vuspsi   :      0.93s CPU      1.02s WALL (    2449 calls)

     General routines
     calbec       :      1.88s CPU      2.67s WALL (    2729 calls)
     fft          :      0.20s CPU      0.31s WALL (     663 calls)
     ffts         :      0.02s CPU      0.02s WALL (      58 calls)
     fftw         :     22.86s CPU     26.07s WALL (  225766 calls)
 
     Parallel routines
 
     PWSCF        :     46.08s CPU   1m 2.65s WALL

 
   This run was terminated on:  22:47:43  28Apr2025            

=------------------------------------------------------------------------------=
   JOB DONE.
=------------------------------------------------------------------------------=
