
     Program PWSCF v.6.8 starts on 28Apr2025 at 10:44:48 

     This program is part of the open-source Quantum ESPRESSO suite
     for quantum simulation of materials; please cite
         "P. Giannozzi et al., J. Phys.:Condens. Matter 21 395502 (2009);
         "P. Giannozzi et al., J. Phys.:Condens. Matter 29 465901 (2017);
         "P. Giannozzi et al., J. Chem. Phys. 152 154105 (2020);
          URL http://www.quantum-espresso.org", 
     in publications or presentations arising from this work. More details at
     http://www.quantum-espresso.org/quote

     Parallel version (MPI & OpenMP), running on      56 processor cores
     Number of MPI processes:                56
     Threads/MPI process:                     1

     MPI processes distributed on     1 nodes
     R & G space division:  proc/nbgrp/npool/nimage =      56
     186621 MiB available memory on the printing compute node when the environment starts
 
     Reading input from surface_relax.in
Warning: card &CELL ignored
Warning: card / ignored
Warning: card &FCP ignored
Warning: card / ignored
Warning: card &RISM ignored
Warning: card / ignored

     Current dimensions of program PWSCF are:
     Max number of different atomic species (ntypx) = 10
     Max number of k-points (npk) =  40000
     Max angular momentum in pseudopotentials (lmaxx) =  4
     Message from routine find_sym:
     Not a group! Trying with lower acceptance parameter...
     Message from routine find_sym:
     Still not a group! symmetry disabled

     Subspace diagonalization in iterative solution of the eigenvalue problem:
     one sub-group per band group will be used
     scalapack distributed-memory algorithm (size of sub-group:  7*  7 procs)

 
     Parallelization info
     --------------------
     sticks:   dense  smooth     PW     G-vecs:    dense   smooth      PW
     Min          17      17      5                 2343     2343     355
     Max          18      18      6                 2366     2366     383
     Sum         955     955    283               131793   131793   20795
 
     Using Slab Decomposition
 


     bravais-lattice index     =            0
     lattice parameter (alat)  =       7.5830  a.u.
     unit-cell volume          =    2097.2343 (a.u.)^3
     number of atoms/cell      =            8
     number of atomic types    =            1
     number of electrons       =       112.00
     number of Kohn-Sham states=           67
     kinetic-energy cutoff     =      60.0000  Ry
     charge density cutoff     =     240.0000  Ry
     scf convergence threshold =      1.0E-06
     mixing beta               =       0.4000
     number of iterations used =            8  plain     mixing
     energy convergence thresh.=      1.0E-04
     force convergence thresh. =      1.0E-03
     Exchange-correlation= PBE
                           (   1   4   3   4   0   0   0)
     nstep                     =           50


     celldm(1)=   7.582957  celldm(2)=   0.000000  celldm(3)=   0.000000
     celldm(4)=   0.000000  celldm(5)=   0.000000  celldm(6)=   0.000000

     crystal axes: (cart. coord. in units of alat)
               a(1) = (   1.000000   0.000000   0.000000 )  
               a(2) = (   0.500000   0.866025   0.000000 )  
               a(3) = (   0.000000   0.000000   5.553933 )  

     reciprocal axes: (cart. coord. in units 2 pi/alat)
               b(1) = (  1.000000 -0.577351  0.000000 )  
               b(2) = (  0.000000  1.154701  0.000000 )  
               b(3) = (  0.000000  0.000000  0.180053 )  


     PseudoPot. # 1 for Ge read from file:
     ./Ge.upf
     MD5 check sum: 087fa14d6c89b52166990835c3b338da
     Pseudo is Norm-conserving + core correction, Zval = 14.0
     Generated using ONCVPSP code by D. R. Hamann
     Using radial grid of 1560 points,  6 beta functions with: 
                l(1) =   0
                l(2) =   0
                l(3) =   1
                l(4) =   1
                l(5) =   2
                l(6) =   2

     atomic species   valence    mass     pseudopotential
        Ge            14.00    72.63000     Ge( 1.00)

     No symmetry found



   Cartesian axes

     site n.     atom                  positions (alat units)
         1           Ge  tau(   1) = (   0.2500002   0.1443376   1.8584076  )
         2           Ge  tau(   2) = (   0.2500001   0.1443376   1.2460352  )
         3           Ge  tau(   3) = (   0.7500004   0.4330127   2.6749042  )
         4           Ge  tau(   4) = (   0.7500003   0.4330127   2.0625318  )
         5           Ge  tau(   5) = (   1.2500006   0.7216879   3.4914008  )
         6           Ge  tau(   6) = (   1.2500005   0.7216879   2.8790284  )
         7           Ge  tau(   7) = (   0.2500006   0.1443376   4.3078975  )
         8           Ge  tau(   8) = (   0.2500005   0.1443376   3.6955250  )

     number of k points=    10  Gaussian smearing, width (Ry)=  0.0100
                       cart. coord. in units 2pi/alat
        k(    1) = (   0.0000000   0.0000000   0.0000000), wk =   0.1250000
        k(    2) = (   0.0000000   0.2886751   0.0000000), wk =   0.2500000
        k(    3) = (   0.0000000  -0.5773503   0.0000000), wk =   0.1250000
        k(    4) = (   0.2500000  -0.7216879   0.0000000), wk =   0.2500000
        k(    5) = (  -0.2500000  -0.1443375   0.0000000), wk =   0.2500000
        k(    6) = (   0.2500000  -0.1443376   0.0000000), wk =   0.2500000
        k(    7) = (   0.5000000   0.2886750   0.0000000), wk =   0.1250000
        k(    8) = (  -0.5000000   0.2886753   0.0000000), wk =   0.1250000
        k(    9) = (   0.5000000   0.5773501   0.0000000), wk =   0.2500000
        k(   10) = (  -0.7500000   0.1443378   0.0000000), wk =   0.2500000

     Dense  grid:   131793 G-vectors     FFT dimensions: (  48,  48, 216)

     Estimated max dynamical RAM per process >       8.16 MB

     Estimated total dynamical RAM >     456.97 MB

     Initial potential from superposition of free atoms

     starting charge  111.99342, renormalised to  112.00000

     negative rho (up, down):  5.023E-06 0.000E+00
     Starting wfcs are   72 randomized atomic wfcs

     total cpu time spent up to now is        1.6 secs

     Self-consistent Calculation

     iteration #  1     ecut=    60.00 Ry     beta= 0.40
     Davidson diagonalization with overlap
     ethr =  1.00E-02,  avg # of iterations =  2.9

     Threshold (ethr) on eigenvalues was too large:
     Diagonalizing with lowered threshold

     Davidson diagonalization with overlap
     ethr =  3.78E-04,  avg # of iterations =  4.3

     negative rho (up, down):  1.373E-06 0.000E+00

     total cpu time spent up to now is        3.8 secs

     total energy              =   -1428.43825388 Ry
     estimated scf accuracy    <       0.46250382 Ry

     iteration #  2     ecut=    60.00 Ry     beta= 0.40
     Davidson diagonalization with overlap
     ethr =  4.13E-04,  avg # of iterations =  7.8

     negative rho (up, down):  2.745E-07 0.000E+00

     total cpu time spent up to now is        5.4 secs

     total energy              =   -1427.70633728 Ry
     estimated scf accuracy    <      17.58347382 Ry

     iteration #  3     ecut=    60.00 Ry     beta= 0.40
     Davidson diagonalization with overlap
     ethr =  4.13E-04,  avg # of iterations =  8.1

     total cpu time spent up to now is        6.9 secs

     total energy              =   -1428.60279123 Ry
     estimated scf accuracy    <       0.18678398 Ry

     iteration #  4     ecut=    60.00 Ry     beta= 0.40
     Davidson diagonalization with overlap
     ethr =  1.67E-04,  avg # of iterations =  2.2

     total cpu time spent up to now is        7.8 secs

     total energy              =   -1428.60799547 Ry
     estimated scf accuracy    <       0.01712556 Ry

     iteration #  5     ecut=    60.00 Ry     beta= 0.40
     Davidson diagonalization with overlap
     ethr =  1.53E-05,  avg # of iterations = 14.3

     total cpu time spent up to now is        9.6 secs

     total energy              =   -1428.60798292 Ry
     estimated scf accuracy    <       0.03373810 Ry

     iteration #  6     ecut=    60.00 Ry     beta= 0.40
     Davidson diagonalization with overlap
     ethr =  1.53E-05,  avg # of iterations =  4.9

     total cpu time spent up to now is       10.7 secs

     total energy              =   -1428.61013993 Ry
     estimated scf accuracy    <       0.00134549 Ry

     iteration #  7     ecut=    60.00 Ry     beta= 0.40
     Davidson diagonalization with overlap
     ethr =  1.20E-06,  avg # of iterations =  6.8

     total cpu time spent up to now is       12.0 secs

     total energy              =   -1428.61019792 Ry
     estimated scf accuracy    <       0.00030592 Ry

     iteration #  8     ecut=    60.00 Ry     beta= 0.40
     Davidson diagonalization with overlap
     ethr =  2.73E-07,  avg # of iterations =  2.2

     total cpu time spent up to now is       12.8 secs

     total energy              =   -1428.61024755 Ry
     estimated scf accuracy    <       0.00006252 Ry

     iteration #  9     ecut=    60.00 Ry     beta= 0.40
     Davidson diagonalization with overlap
     ethr =  5.58E-08,  avg # of iterations =  2.0

     total cpu time spent up to now is       13.7 secs

     total energy              =   -1428.61025466 Ry
     estimated scf accuracy    <       0.00000355 Ry

     iteration # 10     ecut=    60.00 Ry     beta= 0.40
     Davidson diagonalization with overlap
     ethr =  3.17E-09,  avg # of iterations =  2.2

     total cpu time spent up to now is       14.7 secs

     End of self-consistent calculation

          k = 0.0000 0.0000 0.0000 ( 16519 PWs)   bands (ev):

   -21.4105 -21.4105 -21.4091 -21.4091 -21.2812 -21.2812 -21.2772 -21.2765
   -21.2765 -21.2754 -21.2731 -21.2731 -21.2428 -21.2334 -21.2118 -21.2118
   -21.1745 -21.1745 -21.1610 -21.1610 -21.1174 -21.1174 -21.1161 -21.1161
   -21.0185 -21.0185 -21.0177 -21.0079 -20.9847 -20.9847 -20.8521 -20.8521
   -20.8517 -20.8517 -20.8413 -20.8376 -20.8101 -20.8101 -20.8074 -20.8074
    -8.7939  -8.2255  -7.4885  -5.0242  -4.7533  -2.4990  -0.6312   1.2892
     2.4703   2.4703   2.9018   2.9018   3.1215   3.3957   3.3957   3.9907
     4.3597   4.3870   5.8103   5.8104   6.0122   6.0122   6.3186   7.0440
     7.0605   7.0605   7.5977

          k = 0.0000 0.2887 0.0000 ( 16480 PWs)   bands (ev):

   -21.4105 -21.4100 -21.4072 -21.4057 -21.2857 -21.2813 -21.2804 -21.2793
   -21.2792 -21.2779 -21.2756 -21.2753 -21.2539 -21.2187 -21.1984 -21.1879
   -21.1830 -21.1677 -21.1580 -21.1508 -21.1156 -21.1120 -21.0968 -21.0921
   -21.0655 -21.0373 -21.0354 -20.9959 -20.9705 -20.9695 -20.8733 -20.8727
   -20.8558 -20.8547 -20.8287 -20.8274 -20.8061 -20.8046 -20.8041 -20.8039
    -8.1386  -7.5844  -6.8538  -4.7517  -4.4041  -2.7575  -1.5958  -0.8165
    -0.0236   0.9512   1.4828   1.9935   2.0371   2.5692   2.6780   3.5971
     4.0248   5.1179   5.3190   5.5550   5.5709   5.6385   6.7078   7.1013
     7.5199   8.0295   8.4180

          k = 0.0000-0.5774 0.0000 ( 16454 PWs)   bands (ev):

   -21.4110 -21.4100 -21.4064 -21.4056 -21.2865 -21.2833 -21.2826 -21.2779
   -21.2773 -21.2768 -21.2751 -21.2722 -21.2697 -21.2064 -21.1944 -21.1895
   -21.1637 -21.1563 -21.1426 -21.1400 -21.1259 -21.1093 -21.0914 -21.0881
   -21.0782 -21.0524 -21.0504 -20.9923 -20.9828 -20.9608 -20.8734 -20.8729
   -20.8568 -20.8562 -20.8300 -20.8298 -20.8056 -20.8048 -20.8037 -20.8026
    -6.8027  -6.4332  -5.8945  -5.1425  -4.2864  -3.7854  -3.0824  -3.0176
     0.2247   0.5079   0.8593   1.3843   1.8197   1.9731   2.0675   2.3560
     2.7976   4.6661   4.9598   5.1027   5.1686   5.2374   5.7005   7.2304
     7.5749   7.9998   8.3773

          k = 0.2500-0.7217 0.0000 ( 16437 PWs)   bands (ev):

   -21.4083 -21.4079 -21.4047 -21.4039 -21.2982 -21.2841 -21.2824 -21.2781
   -21.2779 -21.2767 -21.2764 -21.2735 -21.2669 -21.2009 -21.1980 -21.1802
   -21.1644 -21.1593 -21.1354 -21.1322 -21.1164 -21.1063 -21.0906 -21.0812
   -21.0797 -21.0711 -21.0509 -20.9934 -20.9817 -20.9486 -20.8884 -20.8873
   -20.8537 -20.8530 -20.8295 -20.8273 -20.8039 -20.8038 -20.7954 -20.7933
    -6.9563  -6.4788  -5.8378  -5.0332  -4.2222  -3.5158  -2.8939  -2.7026
    -0.1184  -0.0285   0.1027   0.4521   1.2496   2.1795   2.3906   2.9161
     2.9787   3.9020   4.1268   6.2181   6.2955   6.7218   7.5545   7.9670
     8.0669   8.3176   8.6494

          k =-0.2500-0.1443 0.0000 ( 16480 PWs)   bands (ev):

   -21.4105 -21.4100 -21.4072 -21.4057 -21.2857 -21.2813 -21.2804 -21.2793
   -21.2792 -21.2779 -21.2756 -21.2753 -21.2539 -21.2187 -21.1984 -21.1879
   -21.1830 -21.1677 -21.1580 -21.1508 -21.1156 -21.1120 -21.0968 -21.0921
   -21.0655 -21.0373 -21.0354 -20.9959 -20.9705 -20.9695 -20.8733 -20.8727
   -20.8558 -20.8547 -20.8287 -20.8274 -20.8061 -20.8046 -20.8041 -20.8039
    -8.1386  -7.5844  -6.8538  -4.7517  -4.4041  -2.7575  -1.5958  -0.8165
    -0.0236   0.9512   1.4828   1.9935   2.0371   2.5692   2.6780   3.5971
     4.0248   5.1179   5.3190   5.5550   5.5709   5.6385   6.7079   7.1013
     7.5199   8.0295   8.4180

          k = 0.2500-0.1443 0.0000 ( 16480 PWs)   bands (ev):

   -21.4105 -21.4100 -21.4072 -21.4057 -21.2857 -21.2813 -21.2804 -21.2793
   -21.2792 -21.2779 -21.2756 -21.2753 -21.2539 -21.2187 -21.1984 -21.1879
   -21.1830 -21.1677 -21.1580 -21.1508 -21.1156 -21.1120 -21.0968 -21.0921
   -21.0655 -21.0373 -21.0354 -20.9959 -20.9705 -20.9695 -20.8733 -20.8727
   -20.8558 -20.8547 -20.8287 -20.8274 -20.8061 -20.8046 -20.8041 -20.8039
    -8.1386  -7.5844  -6.8538  -4.7517  -4.4041  -2.7575  -1.5958  -0.8165
    -0.0236   0.9512   1.4828   1.9935   2.0371   2.5692   2.6780   3.5971
     4.0248   5.1179   5.3190   5.5550   5.5709   5.6385   6.7078   7.1013
     7.5200   8.0295   8.4180

          k = 0.5000 0.2887 0.0000 ( 16454 PWs)   bands (ev):

   -21.4110 -21.4100 -21.4064 -21.4056 -21.2865 -21.2833 -21.2826 -21.2779
   -21.2773 -21.2768 -21.2751 -21.2722 -21.2697 -21.2064 -21.1944 -21.1895
   -21.1637 -21.1563 -21.1426 -21.1400 -21.1259 -21.1093 -21.0914 -21.0881
   -21.0782 -21.0524 -21.0504 -20.9923 -20.9828 -20.9608 -20.8734 -20.8729
   -20.8568 -20.8562 -20.8300 -20.8298 -20.8056 -20.8048 -20.8037 -20.8026
    -6.8027  -6.4332  -5.8945  -5.1425  -4.2864  -3.7854  -3.0824  -3.0176
     0.2247   0.5079   0.8593   1.3843   1.8197   1.9731   2.0675   2.3560
     2.7976   4.6661   4.9598   5.1027   5.1686   5.2374   5.7005   7.2304
     7.5750   7.9998   8.3773

          k =-0.5000 0.2887 0.0000 ( 16454 PWs)   bands (ev):

   -21.4110 -21.4100 -21.4064 -21.4056 -21.2865 -21.2833 -21.2826 -21.2779
   -21.2773 -21.2768 -21.2751 -21.2722 -21.2697 -21.2064 -21.1944 -21.1895
   -21.1637 -21.1563 -21.1426 -21.1400 -21.1259 -21.1093 -21.0914 -21.0881
   -21.0782 -21.0524 -21.0504 -20.9923 -20.9828 -20.9608 -20.8734 -20.8729
   -20.8568 -20.8562 -20.8300 -20.8298 -20.8056 -20.8048 -20.8037 -20.8026
    -6.8027  -6.4332  -5.8945  -5.1425  -4.2864  -3.7854  -3.0824  -3.0176
     0.2247   0.5079   0.8593   1.3843   1.8197   1.9731   2.0675   2.3560
     2.7976   4.6661   4.9598   5.1027   5.1686   5.2374   5.7005   7.2304
     7.5750   7.9998   8.3773

          k = 0.5000 0.5774 0.0000 ( 16437 PWs)   bands (ev):

   -21.4083 -21.4079 -21.4047 -21.4039 -21.2982 -21.2841 -21.2824 -21.2781
   -21.2779 -21.2767 -21.2764 -21.2735 -21.2669 -21.2009 -21.1980 -21.1802
   -21.1644 -21.1593 -21.1354 -21.1322 -21.1164 -21.1063 -21.0906 -21.0812
   -21.0797 -21.0711 -21.0509 -20.9935 -20.9817 -20.9486 -20.8884 -20.8873
   -20.8537 -20.8530 -20.8295 -20.8273 -20.8039 -20.8038 -20.7954 -20.7933
    -6.9563  -6.4788  -5.8378  -5.0332  -4.2222  -3.5158  -2.8939  -2.7026
    -0.1184  -0.0285   0.1027   0.4521   1.2496   2.1795   2.3906   2.9161
     2.9787   3.9020   4.1268   6.2181   6.2955   6.7218   7.5545   7.9670
     8.0673   8.3177   8.6497

          k =-0.7500 0.1443 0.0000 ( 16437 PWs)   bands (ev):

   -21.4083 -21.4079 -21.4047 -21.4039 -21.2982 -21.2841 -21.2824 -21.2781
   -21.2779 -21.2767 -21.2764 -21.2735 -21.2669 -21.2009 -21.1980 -21.1802
   -21.1644 -21.1593 -21.1354 -21.1322 -21.1164 -21.1063 -21.0906 -21.0812
   -21.0797 -21.0711 -21.0509 -20.9934 -20.9817 -20.9486 -20.8884 -20.8873
   -20.8537 -20.8530 -20.8295 -20.8273 -20.8039 -20.8038 -20.7954 -20.7933
    -6.9563  -6.4788  -5.8378  -5.0332  -4.2222  -3.5158  -2.8939  -2.7026
    -0.1184  -0.0285   0.1027   0.4521   1.2496   2.1795   2.3906   2.9161
     2.9787   3.9020   4.1268   6.2181   6.2955   6.7218   7.5545   7.9669
     8.0669   8.3177   8.6485

     the Fermi energy is     3.2451 ev

!    total energy              =   -1428.61025527 Ry
     estimated scf accuracy    <       0.00000071 Ry
     smearing contrib. (-TS)   =      -0.00041734 Ry
     internal energy E=F+TS    =   -1428.60983793 Ry

     The total energy is F=E-TS. E is the sum of the following terms:
     one-electron contribution =   -4283.85914422 Ry
     hartree contribution      =    2194.12215235 Ry
     xc contribution           =    -348.52998716 Ry
     ewald contribution        =    1009.65714110 Ry

     convergence has been achieved in  10 iterations

     Forces acting on atoms (cartesian axes, Ry/au):

     atom    1 type  1   force =     0.00000048    0.00000059   -0.01048222
     atom    2 type  1   force =    -0.00000119    0.00000246   -0.01351897
     atom    3 type  1   force =     0.00000121   -0.00000074   -0.00767587
     atom    4 type  1   force =    -0.00000287    0.00000245    0.01388940
     atom    5 type  1   force =     0.00000051   -0.00000328   -0.01338283
     atom    6 type  1   force =    -0.00000081   -0.00000237    0.00741258
     atom    7 type  1   force =     0.00000228    0.00000064    0.01346428
     atom    8 type  1   force =     0.00000039    0.00000026    0.01029363

     Total force =     0.032646     Total SCF correction =     0.004700
     SCF correction compared to forces is large: reduce conv_thr to get better values

     BFGS Geometry Optimization
     Energy error            =      0.0E+00 Ry
     Gradient error          =      1.4E-02 Ry/Bohr

     number of scf cycles    =   1
     number of bfgs steps    =   0

     energy             new  =   -1428.6102552705 Ry

     new trust radius        =       0.0138894016 bohr
     new conv_thr            =       0.0000010000 Ry


ATOMIC_POSITIONS (angstrom)
Ge            1.0031828493        0.5791877490        7.4517370756
Ge            1.0031815640        0.5791886816        4.9928460686
Ge            3.0095480265        1.7375618704       10.7296008376
Ge            3.0095454591        1.7375634981        8.2837286582
Ge            5.0159124455        2.8959353443       14.0029595472
Ge            5.0159113413        2.8959357676       11.5566799771
Ge            1.0031854263        0.5791880048       17.2935451272
Ge            1.0031840201        0.5791877488       14.8345832643



     Writing output data file ./out/ge.save/
     NEW-OLD atomic charge density approx. for the potential

     total cpu time spent up to now is       14.9 secs

     Self-consistent Calculation

     iteration #  1     ecut=    60.00 Ry     beta= 0.40
     Davidson diagonalization with overlap
     ethr =  1.00E-06,  avg # of iterations =  4.0

     total cpu time spent up to now is       16.6 secs

     total energy              =   -1428.61111699 Ry
     estimated scf accuracy    <       0.00015998 Ry

     iteration #  2     ecut=    60.00 Ry     beta= 0.40
     Davidson diagonalization with overlap
     ethr =  1.43E-07,  avg # of iterations =  3.3

     total cpu time spent up to now is       17.6 secs

     total energy              =   -1428.61103865 Ry
     estimated scf accuracy    <       0.00220533 Ry

     iteration #  3     ecut=    60.00 Ry     beta= 0.40
     Davidson diagonalization with overlap
     ethr =  1.43E-07,  avg # of iterations =  2.3

     total cpu time spent up to now is       18.6 secs

     total energy              =   -1428.61119710 Ry
     estimated scf accuracy    <       0.00002161 Ry

     iteration #  4     ecut=    60.00 Ry     beta= 0.40
     Davidson diagonalization with overlap
     ethr =  1.93E-08,  avg # of iterations =  2.0

     total cpu time spent up to now is       19.4 secs

     total energy              =   -1428.61119553 Ry
     estimated scf accuracy    <       0.00008535 Ry

     iteration #  5     ecut=    60.00 Ry     beta= 0.40
     Davidson diagonalization with overlap
     ethr =  1.93E-08,  avg # of iterations =  2.0

     total cpu time spent up to now is       20.3 secs

     total energy              =   -1428.61120158 Ry
     estimated scf accuracy    <       0.00000573 Ry

     iteration #  6     ecut=    60.00 Ry     beta= 0.40
     Davidson diagonalization with overlap
     ethr =  5.11E-09,  avg # of iterations =  1.0

     total cpu time spent up to now is       21.1 secs

     End of self-consistent calculation

          k = 0.0000 0.0000 0.0000 ( 16519 PWs)   bands (ev):

   -21.4171 -21.4171 -21.4158 -21.4158 -21.2875 -21.2875 -21.2828 -21.2828
   -21.2827 -21.2803 -21.2710 -21.2710 -21.2422 -21.2342 -21.2082 -21.2082
   -21.1635 -21.1635 -21.1510 -21.1510 -21.1067 -21.1067 -21.1052 -21.1052
   -21.0163 -21.0163 -21.0066 -20.9988 -20.9827 -20.9827 -20.8427 -20.8427
   -20.8424 -20.8424 -20.8337 -20.8298 -20.8011 -20.8011 -20.7984 -20.7984
    -8.7859  -8.2020  -7.4635  -5.0335  -4.7555  -2.5312  -0.6539   1.2782
     2.4836   2.4836   2.9310   2.9310   3.0910   3.4266   3.4266   4.0242
     4.3699   4.4285   5.8067   5.8067   6.0140   6.0140   6.3366   7.0267
     7.0584   7.0589   7.6138

          k = 0.0000 0.2887 0.0000 ( 16480 PWs)   bands (ev):

   -21.4170 -21.4168 -21.4138 -21.4124 -21.2878 -21.2865 -21.2856 -21.2846
   -21.2822 -21.2804 -21.2799 -21.2783 -21.2532 -21.2168 -21.1922 -21.1825
   -21.1713 -21.1571 -21.1497 -21.1419 -21.1066 -21.1029 -21.0869 -21.0819
   -21.0575 -21.0334 -21.0290 -20.9886 -20.9681 -20.9667 -20.8641 -20.8636
   -20.8468 -20.8455 -20.8207 -20.8194 -20.7973 -20.7966 -20.7957 -20.7954
    -8.1320  -7.5624  -6.8300  -4.7621  -4.4044  -2.7766  -1.5918  -0.7954
    -0.0117   0.9619   1.4980   2.0243   2.0284   2.6005   2.6618   3.5961
     4.0151   5.1168   5.3363   5.5499   5.5911   5.6360   6.7087   7.1019
     7.5204   8.0066   8.4216

          k = 0.0000-0.5774 0.0000 ( 16454 PWs)   bands (ev):

   -21.4175 -21.4168 -21.4129 -21.4124 -21.2879 -21.2868 -21.2842 -21.2833
   -21.2821 -21.2818 -21.2812 -21.2738 -21.2697 -21.2035 -21.1845 -21.1774
   -21.1565 -21.1497 -21.1365 -21.1284 -21.1161 -21.1027 -21.0806 -21.0778
   -21.0686 -21.0479 -21.0464 -20.9865 -20.9782 -20.9596 -20.8644 -20.8638
   -20.8481 -20.8476 -20.8218 -20.8214 -20.7983 -20.7967 -20.7962 -20.7939
    -6.8027  -6.4196  -5.8755  -5.1431  -4.2664  -3.7626  -3.0787  -3.0072
     0.2171   0.4931   0.8754   1.4159   1.8123   2.0050   2.0630   2.3513
     2.7823   4.6896   4.9576   5.1277   5.1637   5.2345   5.6923   7.2643
     7.5583   7.9909   8.3439

          k = 0.2500-0.7217 0.0000 ( 16437 PWs)   bands (ev):

   -21.4148 -21.4147 -21.4113 -21.4105 -21.2948 -21.2878 -21.2876 -21.2845
   -21.2840 -21.2812 -21.2809 -21.2757 -21.2671 -21.1898 -21.1853 -21.1760
   -21.1586 -21.1524 -21.1293 -21.1260 -21.1095 -21.0974 -21.0820 -21.0705
   -21.0694 -21.0633 -21.0459 -20.9873 -20.9764 -20.9480 -20.8789 -20.8777
   -20.8449 -20.8444 -20.8211 -20.8191 -20.7966 -20.7965 -20.7872 -20.7852
    -6.9541  -6.4629  -5.8194  -5.0377  -4.2056  -3.5064  -2.8852  -2.6851
    -0.0996  -0.0138   0.1172   0.4613   1.2462   2.1727   2.3878   2.9074
     2.9736   3.8989   4.1209   6.2054   6.2856   6.7098   7.5376   7.9734
     8.0855   8.3233   8.6656

          k =-0.2500-0.1443 0.0000 ( 16480 PWs)   bands (ev):

   -21.4170 -21.4168 -21.4138 -21.4124 -21.2878 -21.2865 -21.2856 -21.2846
   -21.2822 -21.2804 -21.2799 -21.2783 -21.2532 -21.2168 -21.1922 -21.1825
   -21.1713 -21.1571 -21.1497 -21.1419 -21.1066 -21.1029 -21.0869 -21.0819
   -21.0575 -21.0334 -21.0290 -20.9886 -20.9681 -20.9667 -20.8641 -20.8636
   -20.8468 -20.8455 -20.8207 -20.8194 -20.7973 -20.7966 -20.7957 -20.7954
    -8.1320  -7.5624  -6.8300  -4.7621  -4.4044  -2.7766  -1.5918  -0.7954
    -0.0117   0.9619   1.4980   2.0243   2.0284   2.6005   2.6618   3.5961
     4.0151   5.1168   5.3363   5.5499   5.5911   5.6360   6.7087   7.1019
     7.5204   8.0066   8.4217

          k = 0.2500-0.1443 0.0000 ( 16480 PWs)   bands (ev):

   -21.4170 -21.4168 -21.4138 -21.4124 -21.2878 -21.2865 -21.2856 -21.2846
   -21.2822 -21.2804 -21.2799 -21.2783 -21.2532 -21.2168 -21.1922 -21.1825
   -21.1713 -21.1571 -21.1497 -21.1419 -21.1066 -21.1029 -21.0869 -21.0819
   -21.0575 -21.0334 -21.0290 -20.9886 -20.9681 -20.9667 -20.8641 -20.8636
   -20.8468 -20.8455 -20.8207 -20.8194 -20.7973 -20.7966 -20.7957 -20.7954
    -8.1320  -7.5624  -6.8300  -4.7621  -4.4044  -2.7766  -1.5918  -0.7953
    -0.0117   0.9620   1.4980   2.0243   2.0284   2.6005   2.6618   3.5961
     4.0151   5.1168   5.3363   5.5499   5.5911   5.6360   6.7087   7.1019
     7.5204   8.0066   8.4216

          k = 0.5000 0.2887 0.0000 ( 16454 PWs)   bands (ev):

   -21.4175 -21.4168 -21.4129 -21.4124 -21.2879 -21.2868 -21.2842 -21.2833
   -21.2821 -21.2818 -21.2812 -21.2738 -21.2697 -21.2035 -21.1845 -21.1774
   -21.1565 -21.1497 -21.1365 -21.1284 -21.1161 -21.1027 -21.0806 -21.0778
   -21.0686 -21.0479 -21.0464 -20.9865 -20.9782 -20.9596 -20.8644 -20.8638
   -20.8481 -20.8476 -20.8218 -20.8214 -20.7983 -20.7967 -20.7962 -20.7939
    -6.8027  -6.4196  -5.8755  -5.1431  -4.2664  -3.7626  -3.0787  -3.0072
     0.2171   0.4931   0.8754   1.4159   1.8123   2.0050   2.0630   2.3513
     2.7823   4.6896   4.9576   5.1277   5.1637   5.2345   5.6923   7.2643
     7.5583   7.9909   8.3439

          k =-0.5000 0.2887 0.0000 ( 16454 PWs)   bands (ev):

   -21.4175 -21.4168 -21.4129 -21.4124 -21.2879 -21.2868 -21.2842 -21.2833
   -21.2821 -21.2818 -21.2812 -21.2738 -21.2697 -21.2035 -21.1845 -21.1774
   -21.1565 -21.1497 -21.1365 -21.1284 -21.1161 -21.1027 -21.0806 -21.0778
   -21.0686 -21.0479 -21.0464 -20.9865 -20.9782 -20.9596 -20.8644 -20.8638
   -20.8481 -20.8476 -20.8218 -20.8214 -20.7983 -20.7967 -20.7962 -20.7939
    -6.8027  -6.4196  -5.8755  -5.1431  -4.2664  -3.7626  -3.0787  -3.0072
     0.2171   0.4931   0.8754   1.4159   1.8123   2.0050   2.0630   2.3513
     2.7823   4.6896   4.9576   5.1277   5.1637   5.2345   5.6923   7.2643
     7.5583   7.9909   8.3439

          k = 0.5000 0.5774 0.0000 ( 16437 PWs)   bands (ev):

   -21.4148 -21.4147 -21.4113 -21.4105 -21.2948 -21.2878 -21.2876 -21.2845
   -21.2840 -21.2812 -21.2809 -21.2757 -21.2671 -21.1898 -21.1853 -21.1760
   -21.1586 -21.1524 -21.1293 -21.1260 -21.1095 -21.0974 -21.0820 -21.0705
   -21.0694 -21.0633 -21.0459 -20.9873 -20.9764 -20.9480 -20.8789 -20.8777
   -20.8449 -20.8444 -20.8211 -20.8191 -20.7966 -20.7965 -20.7872 -20.7852
    -6.9541  -6.4629  -5.8194  -5.0377  -4.2056  -3.5064  -2.8852  -2.6851
    -0.0996  -0.0138   0.1172   0.4613   1.2462   2.1727   2.3878   2.9074
     2.9736   3.8989   4.1209   6.2054   6.2856   6.7098   7.5376   7.9734
     8.0855   8.3233   8.6660

          k =-0.7500 0.1443 0.0000 ( 16437 PWs)   bands (ev):

   -21.4148 -21.4147 -21.4113 -21.4105 -21.2948 -21.2878 -21.2876 -21.2845
   -21.2840 -21.2812 -21.2809 -21.2757 -21.2671 -21.1898 -21.1853 -21.1760
   -21.1586 -21.1524 -21.1293 -21.1260 -21.1095 -21.0974 -21.0820 -21.0705
   -21.0694 -21.0633 -21.0459 -20.9873 -20.9764 -20.9480 -20.8789 -20.8777
   -20.8449 -20.8444 -20.8211 -20.8191 -20.7966 -20.7965 -20.7872 -20.7852
    -6.9541  -6.4629  -5.8194  -5.0377  -4.2056  -3.5064  -2.8852  -2.6851
    -0.0996  -0.0138   0.1172   0.4613   1.2462   2.1727   2.3878   2.9074
     2.9736   3.8989   4.1209   6.2054   6.2856   6.7098   7.5376   7.9734
     8.0855   8.3233   8.6649

     the Fermi energy is     3.2487 ev

!    total energy              =   -1428.61120206 Ry
     estimated scf accuracy    <       0.00000027 Ry
     smearing contrib. (-TS)   =      -0.00026506 Ry
     internal energy E=F+TS    =   -1428.61093700 Ry

     The total energy is F=E-TS. E is the sum of the following terms:
     one-electron contribution =   -4276.63909434 Ry
     hartree contribution      =    2190.54890647 Ry
     xc contribution           =    -348.52688149 Ry
     ewald contribution        =    1006.00613236 Ry

     convergence has been achieved in   6 iterations

     Forces acting on atoms (cartesian axes, Ry/au):

     atom    1 type  1   force =    -0.00000089    0.00000034   -0.00884275
     atom    2 type  1   force =    -0.00000017   -0.00000092   -0.01259227
     atom    3 type  1   force =    -0.00000105    0.00000035   -0.00363872
     atom    4 type  1   force =    -0.00000002   -0.00000039    0.00872448
     atom    5 type  1   force =     0.00000029    0.00000087   -0.00880974
     atom    6 type  1   force =     0.00000175    0.00000091    0.00375377
     atom    7 type  1   force =    -0.00000055   -0.00000032    0.01244439
     atom    8 type  1   force =     0.00000064   -0.00000084    0.00896085

     Total force =     0.025553     Total SCF correction =     0.001311
     Energy error            =      9.5E-04 Ry
     Gradient error          =      1.3E-02 Ry/Bohr

     number of scf cycles    =   2
     number of bfgs steps    =   1

     energy             old  =   -1428.6102552705 Ry
     energy             new  =   -1428.6112020609 Ry

     CASE: energy            _new < energy            _old

     new trust radius        =       0.0152783417 bohr
     new conv_thr            =       0.0000000947 Ry


ATOMIC_POSITIONS (angstrom)
Ge            1.0031823621        0.5791879803        7.4460001046
Ge            1.0031813945        0.5791882984        4.9847611184
Ge            3.0095474918        1.7375620267       10.7270380279
Ge            3.0095452776        1.7375634221        8.2896020989
Ge            5.0159126425        2.8959356473       13.9970673138
Ge            5.0159123025        2.8959361514       11.5592934032
Ge            1.0031852468        0.5791878575       17.3015413856
Ge            1.0031844143        0.5791872810       14.8403771035



     Writing output data file ./out/ge.save/
     NEW-OLD atomic charge density approx. for the potential

     total cpu time spent up to now is       21.3 secs

     Self-consistent Calculation

     iteration #  1     ecut=    60.00 Ry     beta= 0.40
     Davidson diagonalization with overlap
     ethr =  1.00E-06,  avg # of iterations =  4.0

     Threshold (ethr) on eigenvalues was too large:
     Diagonalizing with lowered threshold

     Davidson diagonalization with overlap
     ethr =  7.31E-08,  avg # of iterations =  3.7

     total cpu time spent up to now is       23.9 secs

     total energy              =   -1428.61189440 Ry
     estimated scf accuracy    <       0.00007793 Ry

     iteration #  2     ecut=    60.00 Ry     beta= 0.40
     Davidson diagonalization with overlap
     ethr =  6.96E-08,  avg # of iterations =  2.4

     total cpu time spent up to now is       24.9 secs

     total energy              =   -1428.61186397 Ry
     estimated scf accuracy    <       0.00076349 Ry

     iteration #  3     ecut=    60.00 Ry     beta= 0.40
     Davidson diagonalization with overlap
     ethr =  6.96E-08,  avg # of iterations =  2.4

     total cpu time spent up to now is       25.8 secs

     total energy              =   -1428.61192499 Ry
     estimated scf accuracy    <       0.00001130 Ry

     iteration #  4     ecut=    60.00 Ry     beta= 0.40
     Davidson diagonalization with overlap
     ethr =  1.01E-08,  avg # of iterations =  2.0

     total cpu time spent up to now is       26.7 secs

     total energy              =   -1428.61192447 Ry
     estimated scf accuracy    <       0.00001552 Ry

     iteration #  5     ecut=    60.00 Ry     beta= 0.40
     Davidson diagonalization with overlap
     ethr =  1.01E-08,  avg # of iterations =  2.0

     total cpu time spent up to now is       27.5 secs

     total energy              =   -1428.61192559 Ry
     estimated scf accuracy    <       0.00002701 Ry

     iteration #  6     ecut=    60.00 Ry     beta= 0.40
     Davidson diagonalization with overlap
     ethr =  1.01E-08,  avg # of iterations =  1.1

     total cpu time spent up to now is       28.3 secs

     total energy              =   -1428.61192719 Ry
     estimated scf accuracy    <       0.00000022 Ry

     iteration #  7     ecut=    60.00 Ry     beta= 0.40
     Davidson diagonalization with overlap
     ethr =  1.99E-10,  avg # of iterations =  3.7

     total cpu time spent up to now is       29.3 secs

     total energy              =   -1428.61192721 Ry
     estimated scf accuracy    <       0.00000015 Ry

     iteration #  8     ecut=    60.00 Ry     beta= 0.40
     Davidson diagonalization with overlap
     ethr =  1.29E-10,  avg # of iterations =  2.0

     total cpu time spent up to now is       30.2 secs

     End of self-consistent calculation

          k = 0.0000 0.0000 0.0000 ( 16519 PWs)   bands (ev):

   -21.4233 -21.4233 -21.4220 -21.4220 -21.2932 -21.2932 -21.2887 -21.2887
   -21.2874 -21.2844 -21.2650 -21.2650 -21.2379 -21.2308 -21.2014 -21.2014
   -21.1507 -21.1507 -21.1387 -21.1387 -21.0944 -21.0944 -21.0928 -21.0928
   -21.0100 -21.0100 -20.9940 -20.9875 -20.9767 -20.9767 -20.8304 -20.8304
   -20.8301 -20.8301 -20.8232 -20.8191 -20.7892 -20.7892 -20.7867 -20.7867
    -8.7757  -8.1774  -7.4396  -5.0398  -4.7570  -2.5556  -0.6725   1.2690
     2.4976   2.4976   2.9604   2.9604   3.0662   3.4554   3.4554   4.0541
     4.3784   4.4680   5.8050   5.8050   6.0157   6.0157   6.3494   7.0094
     7.0582   7.0583   7.6292

          k = 0.0000 0.2887 0.0000 ( 16480 PWs)   bands (ev):

   -21.4233 -21.4229 -21.4201 -21.4186 -21.2928 -21.2921 -21.2915 -21.2903
   -21.2846 -21.2842 -21.2773 -21.2720 -21.2488 -21.2113 -21.1840 -21.1749
   -21.1581 -21.1448 -21.1382 -21.1302 -21.0957 -21.0921 -21.0753 -21.0700
   -21.0471 -21.0256 -21.0198 -20.9785 -20.9625 -20.9589 -20.8518 -20.8514
   -20.8348 -20.8334 -20.8098 -20.8086 -20.7858 -20.7856 -20.7848 -20.7838
    -8.1230  -7.5391  -6.8071  -4.7686  -4.4040  -2.7904  -1.5865  -0.7759
     0.0010   0.9742   1.5138   2.0218   2.0550   2.6294   2.6497   3.5952
     4.0067   5.1153   5.3530   5.5456   5.6106   5.6333   6.7072   7.1004
     7.5207   7.9909   8.4237

          k = 0.0000-0.5774 0.0000 ( 16454 PWs)   bands (ev):

   -21.4237 -21.4231 -21.4191 -21.4187 -21.2929 -21.2917 -21.2897 -21.2880
   -21.2860 -21.2850 -21.2768 -21.2703 -21.2655 -21.1970 -21.1733 -21.1639
   -21.1476 -21.1412 -21.1270 -21.1147 -21.1038 -21.0939 -21.0680 -21.0659
   -21.0571 -21.0414 -21.0369 -20.9773 -20.9698 -20.9540 -20.8524 -20.8517
   -20.8362 -20.8359 -20.8106 -20.8101 -20.7882 -20.7869 -20.7848 -20.7824
    -6.7991  -6.4036  -5.8557  -5.1395  -4.2476  -3.7418  -3.0751  -2.9973
     0.2144   0.4839   0.8919   1.4475   1.8066   2.0342   2.0595   2.3467
     2.7701   4.7112   4.9558   5.1515   5.1593   5.2314   5.6853   7.2916
     7.5415   7.9798   8.3195

          k = 0.2500-0.7217 0.0000 ( 16437 PWs)   bands (ev):

   -21.4211 -21.4208 -21.4176 -21.4167 -21.2934 -21.2921 -21.2906 -21.2895
   -21.2882 -21.2853 -21.2842 -21.2725 -21.2632 -21.1784 -21.1713 -21.1677
   -21.1505 -21.1429 -21.1205 -21.1173 -21.0996 -21.0861 -21.0714 -21.0582
   -21.0574 -21.0527 -21.0370 -20.9778 -20.9674 -20.9429 -20.8662 -20.8651
   -20.8331 -20.8327 -20.8098 -20.8080 -20.7866 -20.7864 -20.7762 -20.7742
    -6.9487  -6.4449  -5.8006  -5.0374  -4.1895  -3.4979  -2.8767  -2.6687
    -0.0812   0.0016   0.1316   0.4736   1.2471   2.1679   2.3862   2.9000
     2.9686   3.8960   4.1153   6.1941   6.2764   6.6998   7.5205   7.9779
     8.1033   8.3272   8.6805

          k =-0.2500-0.1443 0.0000 ( 16480 PWs)   bands (ev):

   -21.4233 -21.4229 -21.4201 -21.4186 -21.2928 -21.2921 -21.2915 -21.2903
   -21.2846 -21.2842 -21.2773 -21.2720 -21.2488 -21.2113 -21.1840 -21.1749
   -21.1581 -21.1448 -21.1382 -21.1302 -21.0957 -21.0921 -21.0753 -21.0700
   -21.0471 -21.0256 -21.0198 -20.9785 -20.9625 -20.9589 -20.8518 -20.8514
   -20.8348 -20.8334 -20.8098 -20.8086 -20.7858 -20.7856 -20.7848 -20.7838
    -8.1230  -7.5391  -6.8071  -4.7686  -4.4040  -2.7904  -1.5865  -0.7759
     0.0010   0.9742   1.5138   2.0218   2.0550   2.6294   2.6497   3.5952
     4.0067   5.1153   5.3530   5.5456   5.6106   5.6333   6.7072   7.1004
     7.5207   7.9909   8.4237

          k = 0.2500-0.1443 0.0000 ( 16480 PWs)   bands (ev):

   -21.4233 -21.4229 -21.4201 -21.4186 -21.2928 -21.2921 -21.2915 -21.2903
   -21.2846 -21.2842 -21.2773 -21.2720 -21.2488 -21.2113 -21.1840 -21.1749
   -21.1581 -21.1448 -21.1382 -21.1302 -21.0957 -21.0921 -21.0753 -21.0700
   -21.0471 -21.0256 -21.0198 -20.9785 -20.9625 -20.9589 -20.8518 -20.8514
   -20.8348 -20.8334 -20.8098 -20.8086 -20.7858 -20.7856 -20.7848 -20.7838
    -8.1230  -7.5391  -6.8071  -4.7686  -4.4040  -2.7904  -1.5865  -0.7759
     0.0010   0.9742   1.5138   2.0218   2.0550   2.6293   2.6497   3.5952
     4.0067   5.1153   5.3530   5.5456   5.6106   5.6333   6.7072   7.1004
     7.5207   7.9909   8.4237

          k = 0.5000 0.2887 0.0000 ( 16454 PWs)   bands (ev):

   -21.4237 -21.4231 -21.4191 -21.4187 -21.2929 -21.2917 -21.2897 -21.2880
   -21.2860 -21.2850 -21.2768 -21.2703 -21.2655 -21.1970 -21.1733 -21.1639
   -21.1476 -21.1412 -21.1270 -21.1147 -21.1038 -21.0939 -21.0680 -21.0659
   -21.0571 -21.0414 -21.0369 -20.9773 -20.9698 -20.9540 -20.8524 -20.8517
   -20.8362 -20.8359 -20.8106 -20.8101 -20.7882 -20.7869 -20.7848 -20.7824
    -6.7991  -6.4036  -5.8557  -5.1395  -4.2476  -3.7418  -3.0751  -2.9973
     0.2144   0.4839   0.8919   1.4475   1.8066   2.0342   2.0595   2.3467
     2.7701   4.7112   4.9558   5.1515   5.1593   5.2314   5.6853   7.2916
     7.5415   7.9798   8.3195

          k =-0.5000 0.2887 0.0000 ( 16454 PWs)   bands (ev):

   -21.4237 -21.4231 -21.4191 -21.4187 -21.2929 -21.2917 -21.2897 -21.2880
   -21.2860 -21.2850 -21.2768 -21.2703 -21.2655 -21.1970 -21.1733 -21.1639
   -21.1476 -21.1412 -21.1270 -21.1147 -21.1038 -21.0939 -21.0680 -21.0659
   -21.0571 -21.0414 -21.0369 -20.9773 -20.9698 -20.9540 -20.8524 -20.8517
   -20.8362 -20.8359 -20.8106 -20.8101 -20.7882 -20.7869 -20.7848 -20.7824
    -6.7991  -6.4036  -5.8557  -5.1395  -4.2476  -3.7418  -3.0751  -2.9973
     0.2144   0.4839   0.8919   1.4475   1.8066   2.0342   2.0595   2.3467
     2.7701   4.7112   4.9558   5.1515   5.1593   5.2314   5.6853   7.2916
     7.5415   7.9798   8.3195

          k = 0.5000 0.5774 0.0000 ( 16437 PWs)   bands (ev):

   -21.4211 -21.4208 -21.4176 -21.4167 -21.2934 -21.2921 -21.2906 -21.2895
   -21.2882 -21.2853 -21.2842 -21.2725 -21.2632 -21.1784 -21.1713 -21.1677
   -21.1505 -21.1429 -21.1205 -21.1173 -21.0996 -21.0861 -21.0714 -21.0582
   -21.0574 -21.0527 -21.0370 -20.9778 -20.9674 -20.9429 -20.8662 -20.8651
   -20.8331 -20.8327 -20.8098 -20.8080 -20.7866 -20.7864 -20.7762 -20.7742
    -6.9487  -6.4449  -5.8006  -5.0374  -4.1895  -3.4979  -2.8767  -2.6687
    -0.0812   0.0016   0.1316   0.4736   1.2471   2.1679   2.3862   2.9000
     2.9686   3.8960   4.1153   6.1941   6.2764   6.6998   7.5205   7.9779
     8.1033   8.3272   8.6808

          k =-0.7500 0.1443 0.0000 ( 16437 PWs)   bands (ev):

   -21.4211 -21.4208 -21.4176 -21.4167 -21.2934 -21.2921 -21.2906 -21.2895
   -21.2882 -21.2853 -21.2842 -21.2725 -21.2632 -21.1784 -21.1713 -21.1677
   -21.1505 -21.1429 -21.1205 -21.1173 -21.0996 -21.0861 -21.0714 -21.0582
   -21.0574 -21.0527 -21.0370 -20.9778 -20.9674 -20.9429 -20.8662 -20.8651
   -20.8331 -20.8327 -20.8098 -20.8080 -20.7866 -20.7864 -20.7762 -20.7742
    -6.9487  -6.4449  -5.8006  -5.0374  -4.1895  -3.4979  -2.8767  -2.6687
    -0.0812   0.0016   0.1316   0.4736   1.2471   2.1679   2.3862   2.9000
     2.9686   3.8960   4.1153   6.1941   6.2764   6.6998   7.5205   7.9779
     8.1033   8.3271   8.6798

     the Fermi energy is     3.2540 ev

!    total energy              =   -1428.61192723 Ry
     estimated scf accuracy    <       0.00000001 Ry
     smearing contrib. (-TS)   =      -0.00017033 Ry
     internal energy E=F+TS    =   -1428.61175690 Ry

     The total energy is F=E-TS. E is the sum of the following terms:
     one-electron contribution =   -4267.71492956 Ry
     hartree contribution      =    2186.10953142 Ry
     xc contribution           =    -348.52171007 Ry
     ewald contribution        =    1001.51535131 Ry

     convergence has been achieved in   8 iterations

     Forces acting on atoms (cartesian axes, Ry/au):

     atom    1 type  1   force =    -0.00000024    0.00000018   -0.00750175
     atom    2 type  1   force =     0.00000004    0.00000003   -0.01184888
     atom    3 type  1   force =     0.00000021   -0.00000001   -0.00059949
     atom    4 type  1   force =     0.00000027   -0.00000018    0.00457942
     atom    5 type  1   force =    -0.00000013    0.00000026   -0.00469090
     atom    6 type  1   force =    -0.00000035    0.00000017    0.00061160
     atom    7 type  1   force =     0.00000010    0.00000011    0.01187970
     atom    8 type  1   force =     0.00000010   -0.00000055    0.00757030

     Total force =     0.020948     Total SCF correction =     0.000647
     Energy error            =      7.3E-04 Ry
     Gradient error          =      1.2E-02 Ry/Bohr

     number of scf cycles    =   3
     number of bfgs steps    =   2

     energy             old  =   -1428.6112020609 Ry
     energy             new  =   -1428.6119272264 Ry

     CASE: energy            _new < energy            _old

     new trust radius        =       0.0229175126 bohr
     new conv_thr            =       0.0000000725 Ry


ATOMIC_POSITIONS (angstrom)
Ge            1.0031821804        0.5791882326        7.4379539188
Ge            1.0031812265        0.5791886152        4.9726359599
Ge            3.0095477471        1.7375619363       10.7250950375
Ge            3.0095450392        1.7375636274        8.2959477168
Ge            5.0159126488        2.8959354174       13.9907076414
Ge            5.0159120651        2.8959359961       11.5612150583
Ge            1.0031856224        0.5791880075       17.3136688110
Ge            1.0031846025        0.5791868322       14.8484564121



     Writing output data file ./out/ge.save/
     NEW-OLD atomic charge density approx. for the potential

     total cpu time spent up to now is       30.5 secs

     Self-consistent Calculation

     iteration #  1     ecut=    60.00 Ry     beta= 0.40
     Davidson diagonalization with overlap
     ethr =  1.00E-06,  avg # of iterations =  7.2

     total cpu time spent up to now is       32.4 secs

     total energy              =   -1428.61262617 Ry
     estimated scf accuracy    <       0.00014532 Ry

     iteration #  2     ecut=    60.00 Ry     beta= 0.40
     Davidson diagonalization with overlap
     ethr =  1.30E-07,  avg # of iterations =  3.4

     total cpu time spent up to now is       33.5 secs

     total energy              =   -1428.61258301 Ry
     estimated scf accuracy    <       0.00120899 Ry

     iteration #  3     ecut=    60.00 Ry     beta= 0.40
     Davidson diagonalization with overlap
     ethr =  1.30E-07,  avg # of iterations =  2.1

     total cpu time spent up to now is       34.4 secs

     total energy              =   -1428.61268435 Ry
     estimated scf accuracy    <       0.00003779 Ry

     iteration #  4     ecut=    60.00 Ry     beta= 0.40
     Davidson diagonalization with overlap
     ethr =  3.37E-08,  avg # of iterations =  2.0

     total cpu time spent up to now is       35.3 secs

     total energy              =   -1428.61268572 Ry
     estimated scf accuracy    <       0.00002012 Ry

     iteration #  5     ecut=    60.00 Ry     beta= 0.40
     Davidson diagonalization with overlap
     ethr =  1.80E-08,  avg # of iterations =  2.0

     total cpu time spent up to now is       36.2 secs

     total energy              =   -1428.61268585 Ry
     estimated scf accuracy    <       0.00007931 Ry

     iteration #  6     ecut=    60.00 Ry     beta= 0.40
     Davidson diagonalization with overlap
     ethr =  1.80E-08,  avg # of iterations =  1.5

     total cpu time spent up to now is       37.0 secs

     total energy              =   -1428.61269035 Ry
     estimated scf accuracy    <       0.00000048 Ry

     iteration #  7     ecut=    60.00 Ry     beta= 0.40
     Davidson diagonalization with overlap
     ethr =  4.28E-10,  avg # of iterations =  3.7

     total cpu time spent up to now is       38.0 secs

     total energy              =   -1428.61269039 Ry
     estimated scf accuracy    <       0.00000012 Ry

     iteration #  8     ecut=    60.00 Ry     beta= 0.40
     Davidson diagonalization with overlap
     ethr =  1.09E-10,  avg # of iterations =  2.1

     total cpu time spent up to now is       38.9 secs

     End of self-consistent calculation

          k = 0.0000 0.0000 0.0000 ( 16519 PWs)   bands (ev):

   -21.4313 -21.4313 -21.4298 -21.4298 -21.3006 -21.3006 -21.2966 -21.2966
   -21.2935 -21.2899 -21.2571 -21.2571 -21.2305 -21.2241 -21.1924 -21.1924
   -21.1326 -21.1326 -21.1213 -21.1213 -21.0767 -21.0767 -21.0752 -21.0752
   -21.0011 -21.0011 -20.9777 -20.9723 -20.9683 -20.9683 -20.8139 -20.8139
   -20.8136 -20.8136 -20.8090 -20.8049 -20.7730 -20.7730 -20.7709 -20.7709
    -8.7608  -8.1429  -7.4099  -5.0441  -4.7578  -2.5803  -0.6934   1.2582
     2.5161   2.5161   3.0004   3.0004   3.0392   3.4908   3.4908   4.0890
     4.3869   4.5191   5.8058   5.8058   6.0190   6.0190   6.3604   6.9858
     7.0588   7.0588   7.6489

          k = 0.0000 0.2887 0.0000 ( 16480 PWs)   bands (ev):

   -21.4315 -21.4305 -21.4280 -21.4264 -21.3005 -21.2995 -21.2993 -21.2979
   -21.2904 -21.2894 -21.2701 -21.2638 -21.2414 -21.2029 -21.1733 -21.1644
   -21.1395 -21.1275 -21.1214 -21.1132 -21.0802 -21.0769 -21.0586 -21.0529
   -21.0330 -21.0143 -21.0074 -20.9646 -20.9545 -20.9479 -20.8353 -20.8351
   -20.8186 -20.8170 -20.7950 -20.7940 -20.7710 -20.7699 -20.7697 -20.7681
    -8.1092  -7.5060  -6.7783  -4.7725  -4.4022  -2.8039  -1.5781  -0.7529
     0.0186   0.9921   1.5343   2.0153   2.0965   2.6380   2.6644   3.5950
     3.9973   5.1120   5.3747   5.5417   5.6307   5.6361   6.7019   7.0952
     7.5208   7.9765   8.4246

          k = 0.0000-0.5774 0.0000 ( 16454 PWs)   bands (ev):

   -21.4317 -21.4308 -21.4272 -21.4263 -21.3002 -21.2992 -21.2972 -21.2961
   -21.2913 -21.2902 -21.2683 -21.2636 -21.2585 -21.1882 -21.1587 -21.1451
   -21.1352 -21.1291 -21.1128 -21.0953 -21.0857 -21.0816 -21.0505 -21.0493
   -21.0406 -21.0324 -21.0227 -20.9646 -20.9579 -20.9460 -20.8362 -20.8354
   -20.8203 -20.8201 -20.7956 -20.7949 -20.7745 -20.7736 -20.7692 -20.7667
    -6.7913  -6.3792  -5.8287  -5.1302  -4.2238  -3.7174  -3.0701  -2.9844
     0.2157   0.4773   0.9132   1.4899   1.8011   2.0564   2.0696   2.3413
     2.7570   4.7379   4.9533   5.1549   5.1824   5.2280   5.6770   7.3199
     7.5188   7.9619   8.2956

          k = 0.2500-0.7217 0.0000 ( 16437 PWs)   bands (ev):

   -21.4293 -21.4283 -21.4256 -21.4244 -21.3008 -21.2993 -21.2987 -21.2967
   -21.2910 -21.2899 -21.2787 -21.2660 -21.2562 -21.1657 -21.1538 -21.1523
   -21.1391 -21.1291 -21.1082 -21.1049 -21.0858 -21.0699 -21.0563 -21.0410
   -21.0405 -21.0371 -21.0237 -20.9649 -20.9550 -20.9353 -20.8493 -20.8482
   -20.8171 -20.8169 -20.7946 -20.7930 -20.7730 -20.7727 -20.7611 -20.7590
    -6.9388  -6.4181  -5.7752  -5.0319  -4.1687  -3.4883  -2.8651  -2.6484
    -0.0581   0.0232   0.1505   0.4929   1.2529   2.1638   2.3852   2.8918
     2.9624   3.8933   4.1090   6.1807   6.2646   6.6879   7.4971   7.9803
     8.1260   8.3301   8.6975

          k =-0.2500-0.1443 0.0000 ( 16480 PWs)   bands (ev):

   -21.4315 -21.4305 -21.4280 -21.4264 -21.3005 -21.2995 -21.2993 -21.2979
   -21.2904 -21.2894 -21.2701 -21.2638 -21.2414 -21.2029 -21.1733 -21.1644
   -21.1395 -21.1275 -21.1214 -21.1132 -21.0802 -21.0769 -21.0586 -21.0529
   -21.0330 -21.0143 -21.0074 -20.9646 -20.9545 -20.9479 -20.8353 -20.8351
   -20.8186 -20.8170 -20.7950 -20.7940 -20.7710 -20.7699 -20.7697 -20.7681
    -8.1092  -7.5060  -6.7783  -4.7725  -4.4022  -2.8039  -1.5781  -0.7529
     0.0186   0.9921   1.5343   2.0153   2.0965   2.6380   2.6644   3.5950
     3.9973   5.1120   5.3747   5.5417   5.6307   5.6361   6.7019   7.0952
     7.5208   7.9765   8.4246

          k = 0.2500-0.1443 0.0000 ( 16480 PWs)   bands (ev):

   -21.4315 -21.4305 -21.4280 -21.4264 -21.3005 -21.2995 -21.2993 -21.2979
   -21.2904 -21.2894 -21.2701 -21.2638 -21.2414 -21.2029 -21.1733 -21.1644
   -21.1395 -21.1275 -21.1214 -21.1132 -21.0802 -21.0769 -21.0586 -21.0529
   -21.0330 -21.0143 -21.0074 -20.9646 -20.9545 -20.9479 -20.8353 -20.8351
   -20.8186 -20.8170 -20.7950 -20.7940 -20.7710 -20.7699 -20.7697 -20.7681
    -8.1092  -7.5060  -6.7783  -4.7725  -4.4022  -2.8039  -1.5781  -0.7529
     0.0186   0.9921   1.5343   2.0153   2.0965   2.6380   2.6644   3.5950
     3.9973   5.1120   5.3747   5.5417   5.6307   5.6361   6.7019   7.0952
     7.5208   7.9764   8.4245

          k = 0.5000 0.2887 0.0000 ( 16454 PWs)   bands (ev):

   -21.4317 -21.4308 -21.4272 -21.4263 -21.3002 -21.2992 -21.2972 -21.2961
   -21.2913 -21.2902 -21.2683 -21.2636 -21.2585 -21.1882 -21.1587 -21.1451
   -21.1352 -21.1291 -21.1128 -21.0953 -21.0857 -21.0816 -21.0505 -21.0493
   -21.0406 -21.0324 -21.0227 -20.9646 -20.9579 -20.9460 -20.8362 -20.8354
   -20.8203 -20.8201 -20.7956 -20.7949 -20.7745 -20.7736 -20.7692 -20.7667
    -6.7913  -6.3792  -5.8287  -5.1302  -4.2238  -3.7174  -3.0701  -2.9844
     0.2157   0.4773   0.9132   1.4899   1.8011   2.0564   2.0696   2.3413
     2.7570   4.7379   4.9533   5.1549   5.1824   5.2280   5.6770   7.3199
     7.5188   7.9619   8.2956

          k =-0.5000 0.2887 0.0000 ( 16454 PWs)   bands (ev):

   -21.4317 -21.4308 -21.4272 -21.4263 -21.3002 -21.2992 -21.2972 -21.2961
   -21.2913 -21.2902 -21.2683 -21.2636 -21.2585 -21.1882 -21.1587 -21.1451
   -21.1352 -21.1291 -21.1128 -21.0953 -21.0857 -21.0816 -21.0505 -21.0493
   -21.0406 -21.0324 -21.0227 -20.9646 -20.9579 -20.9460 -20.8362 -20.8354
   -20.8203 -20.8201 -20.7956 -20.7949 -20.7745 -20.7736 -20.7692 -20.7667
    -6.7913  -6.3792  -5.8287  -5.1302  -4.2238  -3.7174  -3.0701  -2.9844
     0.2157   0.4772   0.9132   1.4899   1.8011   2.0564   2.0696   2.3413
     2.7570   4.7379   4.9533   5.1549   5.1824   5.2280   5.6770   7.3199
     7.5188   7.9619   8.2956

          k = 0.5000 0.5774 0.0000 ( 16437 PWs)   bands (ev):

   -21.4293 -21.4283 -21.4256 -21.4244 -21.3008 -21.2993 -21.2987 -21.2967
   -21.2910 -21.2899 -21.2787 -21.2660 -21.2562 -21.1657 -21.1538 -21.1523
   -21.1391 -21.1291 -21.1082 -21.1049 -21.0858 -21.0699 -21.0563 -21.0410
   -21.0405 -21.0371 -21.0237 -20.9649 -20.9550 -20.9353 -20.8493 -20.8482
   -20.8171 -20.8169 -20.7946 -20.7930 -20.7730 -20.7727 -20.7611 -20.7590
    -6.9388  -6.4181  -5.7752  -5.0319  -4.1687  -3.4883  -2.8651  -2.6484
    -0.0581   0.0232   0.1505   0.4929   1.2529   2.1638   2.3852   2.8918
     2.9624   3.8933   4.1090   6.1807   6.2646   6.6879   7.4971   7.9803
     8.1260   8.3301   8.6976

          k =-0.7500 0.1443 0.0000 ( 16437 PWs)   bands (ev):

   -21.4293 -21.4283 -21.4256 -21.4244 -21.3008 -21.2993 -21.2987 -21.2967
   -21.2910 -21.2899 -21.2787 -21.2660 -21.2562 -21.1657 -21.1538 -21.1523
   -21.1391 -21.1291 -21.1082 -21.1049 -21.0858 -21.0699 -21.0563 -21.0410
   -21.0405 -21.0371 -21.0237 -20.9649 -20.9550 -20.9353 -20.8493 -20.8482
   -20.8171 -20.8169 -20.7946 -20.7930 -20.7730 -20.7727 -20.7611 -20.7590
    -6.9388  -6.4181  -5.7752  -5.0319  -4.1687  -3.4883  -2.8651  -2.6484
    -0.0581   0.0232   0.1505   0.4929   1.2529   2.1638   2.3852   2.8918
     2.9624   3.8933   4.1090   6.1807   6.2646   6.6879   7.4971   7.9803
     8.1260   8.3301   8.6977

     the Fermi energy is     3.2650 ev

!    total energy              =   -1428.61269040 Ry
     estimated scf accuracy    <       0.00000005 Ry
     smearing contrib. (-TS)   =      -0.00010548 Ry
     internal energy E=F+TS    =   -1428.61258491 Ry

     The total energy is F=E-TS. E is the sum of the following terms:
     one-electron contribution =   -4253.51174131 Ry
     hartree contribution      =    2179.04264145 Ry
     xc contribution           =    -348.51425104 Ry
     ewald contribution        =     994.37076598 Ry

     convergence has been achieved in   8 iterations

     Forces acting on atoms (cartesian axes, Ry/au):

     atom    1 type  1   force =    -0.00000029   -0.00000019   -0.00610818
     atom    2 type  1   force =    -0.00000003    0.00000012   -0.01027036
     atom    3 type  1   force =     0.00000000   -0.00000004    0.00239421
     atom    4 type  1   force =     0.00000007   -0.00000036   -0.00033641
     atom    5 type  1   force =     0.00000019    0.00000049    0.00022945
     atom    6 type  1   force =    -0.00000013    0.00000004   -0.00237649
     atom    7 type  1   force =     0.00000002    0.00000006    0.01033604
     atom    8 type  1   force =     0.00000017   -0.00000011    0.00613175

     Total force =     0.017285     Total SCF correction =     0.001360
     Energy error            =      7.6E-04 Ry
     Gradient error          =      1.0E-02 Ry/Bohr

     number of scf cycles    =   4
     number of bfgs steps    =   3

     energy             old  =   -1428.6119272264 Ry
     energy             new  =   -1428.6126903984 Ry

     CASE: energy            _new < energy            _old

     new trust radius        =       0.0343762689 bohr
     new conv_thr            =       0.0000000763 Ry


ATOMIC_POSITIONS (angstrom)
Ge            1.0031818808        0.5791883374        7.4260898617
Ge            1.0031808259        0.5791893373        4.9544728647
Ge            3.0095480257        1.7375617262       10.7241694720
Ge            3.0095442989        1.7375639477        8.3023874675
Ge            5.0159129757        2.8959350456       13.9842853076
Ge            5.0159118589        2.8959354905       11.5620960076
Ge            1.0031862810        0.5791882396       17.3318599491
Ge            1.0031849853        0.5791865405       14.8603196256



     Writing output data file ./out/ge.save/
     NEW-OLD atomic charge density approx. for the potential

     negative rho (up, down):  1.187E-08 0.000E+00

     total cpu time spent up to now is       39.2 secs

     Self-consistent Calculation

     iteration #  1     ecut=    60.00 Ry     beta= 0.40
     Davidson diagonalization with overlap
     ethr =  1.00E-06,  avg # of iterations =  6.6

     total cpu time spent up to now is       41.2 secs

     total energy              =   -1428.61336825 Ry
     estimated scf accuracy    <       0.00026410 Ry

     iteration #  2     ecut=    60.00 Ry     beta= 0.40
     Davidson diagonalization with overlap
     ethr =  2.36E-07,  avg # of iterations =  2.7

     total cpu time spent up to now is       42.2 secs

     total energy              =   -1428.61328854 Ry
     estimated scf accuracy    <       0.00197767 Ry

     iteration #  3     ecut=    60.00 Ry     beta= 0.40
     Davidson diagonalization with overlap
     ethr =  2.36E-07,  avg # of iterations =  2.1

     total cpu time spent up to now is       43.1 secs

     total energy              =   -1428.61345967 Ry
     estimated scf accuracy    <       0.00007696 Ry

     iteration #  4     ecut=    60.00 Ry     beta= 0.40
     Davidson diagonalization with overlap
     ethr =  6.87E-08,  avg # of iterations =  2.0

     total cpu time spent up to now is       44.0 secs

     total energy              =   -1428.61346179 Ry
     estimated scf accuracy    <       0.00004748 Ry

     iteration #  5     ecut=    60.00 Ry     beta= 0.40
     Davidson diagonalization with overlap
     ethr =  4.24E-08,  avg # of iterations =  2.0

     total cpu time spent up to now is       44.8 secs

     total energy              =   -1428.61346332 Ry
     estimated scf accuracy    <       0.00014592 Ry

     iteration #  6     ecut=    60.00 Ry     beta= 0.40
     Davidson diagonalization with overlap
     ethr =  4.24E-08,  avg # of iterations =  1.1

     total cpu time spent up to now is       45.6 secs

     total energy              =   -1428.61347160 Ry
     estimated scf accuracy    <       0.00000120 Ry

     iteration #  7     ecut=    60.00 Ry     beta= 0.40
     Davidson diagonalization with overlap
     ethr =  1.08E-09,  avg # of iterations =  3.4

     total cpu time spent up to now is       46.6 secs

     total energy              =   -1428.61347176 Ry
     estimated scf accuracy    <       0.00000095 Ry

     iteration #  8     ecut=    60.00 Ry     beta= 0.40
     Davidson diagonalization with overlap
     ethr =  8.51E-10,  avg # of iterations =  2.0

     total cpu time spent up to now is       47.5 secs

     End of self-consistent calculation

          k = 0.0000 0.0000 0.0000 ( 16519 PWs)   bands (ev):

   -21.4413 -21.4413 -21.4403 -21.4403 -21.3102 -21.3102 -21.3075 -21.3075
   -21.3012 -21.2977 -21.2470 -21.2470 -21.2194 -21.2132 -21.1810 -21.1810
   -21.1079 -21.1079 -21.0972 -21.0972 -21.0525 -21.0525 -21.0515 -21.0515
   -20.9885 -20.9885 -20.9572 -20.9572 -20.9569 -20.9522 -20.7911 -20.7911
   -20.7907 -20.7907 -20.7888 -20.7849 -20.7505 -20.7505 -20.7491 -20.7491
    -8.7390  -8.0943  -7.3726  -5.0455  -4.7577  -2.6041  -0.7170   1.2445
     2.5403   2.5403   3.0096   3.0551   3.0551   3.5349   3.5349   4.1290
     4.3955   4.5855   5.8099   5.8099   6.0238   6.0238   6.3680   6.9541
     7.0604   7.0604   7.6743

          k = 0.0000 0.2887 0.0000 ( 16480 PWs)   bands (ev):

   -21.4416 -21.4409 -21.4381 -21.4368 -21.3105 -21.3098 -21.3093 -21.3084
   -21.2979 -21.2971 -21.2602 -21.2536 -21.2305 -21.1910 -21.1602 -21.1509
   -21.1144 -21.1046 -21.0975 -21.0894 -21.0593 -21.0569 -21.0358 -21.0294
   -21.0134 -20.9978 -20.9912 -20.9459 -20.9438 -20.9326 -20.8126 -20.8124
   -20.7961 -20.7944 -20.7744 -20.7736 -20.7503 -20.7492 -20.7477 -20.7463
    -8.0887  -7.4591  -6.7418  -4.7723  -4.3990  -2.8161  -1.5654  -0.7265
     0.0435   1.0182   1.5609   2.0087   2.1529   2.6269   2.7074   3.5953
     3.9864   5.1060   5.4027   5.5382   5.6279   5.6693   6.6896   7.0853
     7.5208   7.9645   8.4232

          k = 0.0000-0.5774 0.0000 ( 16454 PWs)   bands (ev):

   -21.4420 -21.4410 -21.4375 -21.4365 -21.3106 -21.3091 -21.3076 -21.3063
   -21.2985 -21.2976 -21.2580 -21.2536 -21.2480 -21.1768 -21.1414 -21.1202
   -21.1191 -21.1129 -21.0916 -21.0689 -21.0651 -21.0603 -21.0279 -21.0265
   -21.0192 -21.0182 -21.0022 -20.9474 -20.9416 -20.9349 -20.8137 -20.8127
   -20.7983 -20.7981 -20.7746 -20.7738 -20.7552 -20.7547 -20.7475 -20.7449
    -6.7773  -6.3429  -5.7919  -5.1127  -4.1944  -3.6893  -3.0627  -2.9670
     0.2226   0.4750   0.9407   1.5473   1.7958   2.0538   2.1130   2.3346
     2.7429   4.7709   4.9489   5.1507   5.2227   5.2242   5.6667   7.3464
     7.4890   7.9346   8.2732

          k = 0.2500-0.7217 0.0000 ( 16437 PWs)   bands (ev):

   -21.4395 -21.4387 -21.4358 -21.4348 -21.3108 -21.3097 -21.3091 -21.3066
   -21.2985 -21.2970 -21.2684 -21.2560 -21.2458 -21.1521 -21.1346 -21.1297
   -21.1221 -21.1089 -21.0913 -21.0876 -21.0676 -21.0474 -21.0359 -21.0179
   -21.0175 -21.0146 -21.0040 -20.9473 -20.9381 -20.9249 -20.8259 -20.8248
   -20.7951 -20.7949 -20.7736 -20.7723 -20.7538 -20.7535 -20.7399 -20.7380
    -6.9224  -6.3788  -5.7413  -5.0187  -4.1424  -3.4778  -2.8490  -2.6229
    -0.0303   0.0533   0.1768   0.5223   1.2656   2.1610   2.3849   2.8827
     2.9544   3.8907   4.1015   6.1642   6.2483   6.6722   7.4649   7.9778
     8.1547   8.3323   8.7188

          k =-0.2500-0.1443 0.0000 ( 16480 PWs)   bands (ev):

   -21.4416 -21.4409 -21.4381 -21.4368 -21.3105 -21.3098 -21.3093 -21.3084
   -21.2979 -21.2971 -21.2602 -21.2536 -21.2305 -21.1910 -21.1602 -21.1509
   -21.1144 -21.1046 -21.0975 -21.0894 -21.0593 -21.0569 -21.0358 -21.0294
   -21.0134 -20.9978 -20.9912 -20.9459 -20.9438 -20.9326 -20.8126 -20.8124
   -20.7961 -20.7944 -20.7744 -20.7736 -20.7503 -20.7492 -20.7477 -20.7463
    -8.0887  -7.4591  -6.7418  -4.7723  -4.3990  -2.8161  -1.5654  -0.7265
     0.0435   1.0182   1.5609   2.0087   2.1529   2.6269   2.7074   3.5953
     3.9864   5.1060   5.4027   5.5382   5.6279   5.6693   6.6896   7.0853
     7.5208   7.9645   8.4232

          k = 0.2500-0.1443 0.0000 ( 16480 PWs)   bands (ev):

   -21.4416 -21.4409 -21.4381 -21.4368 -21.3105 -21.3098 -21.3093 -21.3084
   -21.2979 -21.2971 -21.2602 -21.2536 -21.2305 -21.1910 -21.1602 -21.1509
   -21.1144 -21.1046 -21.0975 -21.0894 -21.0593 -21.0569 -21.0358 -21.0294
   -21.0134 -20.9978 -20.9912 -20.9459 -20.9438 -20.9326 -20.8126 -20.8124
   -20.7961 -20.7944 -20.7744 -20.7736 -20.7503 -20.7492 -20.7477 -20.7463
    -8.0887  -7.4591  -6.7418  -4.7723  -4.3990  -2.8161  -1.5654  -0.7265
     0.0435   1.0182   1.5609   2.0087   2.1529   2.6269   2.7074   3.5954
     3.9864   5.1060   5.4027   5.5382   5.6279   5.6693   6.6896   7.0853
     7.5208   7.9645   8.4232

          k = 0.5000 0.2887 0.0000 ( 16454 PWs)   bands (ev):

   -21.4420 -21.4410 -21.4375 -21.4365 -21.3106 -21.3091 -21.3076 -21.3063
   -21.2985 -21.2976 -21.2580 -21.2536 -21.2480 -21.1768 -21.1414 -21.1202
   -21.1191 -21.1129 -21.0916 -21.0689 -21.0651 -21.0603 -21.0279 -21.0265
   -21.0192 -21.0182 -21.0022 -20.9474 -20.9416 -20.9349 -20.8137 -20.8127
   -20.7983 -20.7981 -20.7746 -20.7738 -20.7552 -20.7547 -20.7475 -20.7449
    -6.7773  -6.3429  -5.7919  -5.1127  -4.1944  -3.6893  -3.0627  -2.9670
     0.2226   0.4750   0.9407   1.5473   1.7958   2.0538   2.1130   2.3346
     2.7429   4.7709   4.9489   5.1507   5.2227   5.2242   5.6667   7.3464
     7.4890   7.9346   8.2732

          k =-0.5000 0.2887 0.0000 ( 16454 PWs)   bands (ev):

   -21.4420 -21.4410 -21.4375 -21.4365 -21.3106 -21.3091 -21.3076 -21.3063
   -21.2985 -21.2976 -21.2580 -21.2536 -21.2480 -21.1768 -21.1414 -21.1202
   -21.1191 -21.1129 -21.0916 -21.0689 -21.0651 -21.0603 -21.0279 -21.0265
   -21.0192 -21.0182 -21.0022 -20.9474 -20.9416 -20.9349 -20.8137 -20.8127
   -20.7983 -20.7981 -20.7746 -20.7738 -20.7552 -20.7547 -20.7475 -20.7449
    -6.7773  -6.3429  -5.7919  -5.1127  -4.1944  -3.6893  -3.0627  -2.9670
     0.2226   0.4750   0.9407   1.5473   1.7958   2.0538   2.1130   2.3346
     2.7429   4.7709   4.9489   5.1507   5.2227   5.2242   5.6667   7.3464
     7.4890   7.9346   8.2732

          k = 0.5000 0.5774 0.0000 ( 16437 PWs)   bands (ev):

   -21.4395 -21.4387 -21.4358 -21.4348 -21.3108 -21.3097 -21.3091 -21.3066
   -21.2985 -21.2970 -21.2684 -21.2560 -21.2458 -21.1521 -21.1346 -21.1297
   -21.1221 -21.1089 -21.0913 -21.0876 -21.0676 -21.0474 -21.0359 -21.0179
   -21.0175 -21.0146 -21.0040 -20.9473 -20.9381 -20.9249 -20.8259 -20.8248
   -20.7951 -20.7949 -20.7736 -20.7723 -20.7538 -20.7535 -20.7399 -20.7380
    -6.9224  -6.3788  -5.7413  -5.0187  -4.1424  -3.4778  -2.8490  -2.6228
    -0.0303   0.0533   0.1768   0.5223   1.2656   2.1610   2.3849   2.8827
     2.9544   3.8907   4.1015   6.1642   6.2483   6.6722   7.4649   7.9778
     8.1547   8.3323   8.7188

          k =-0.7500 0.1443 0.0000 ( 16437 PWs)   bands (ev):

   -21.4395 -21.4387 -21.4358 -21.4348 -21.3108 -21.3097 -21.3091 -21.3066
   -21.2985 -21.2970 -21.2684 -21.2560 -21.2458 -21.1521 -21.1346 -21.1297
   -21.1221 -21.1089 -21.0913 -21.0876 -21.0676 -21.0474 -21.0359 -21.0179
   -21.0175 -21.0146 -21.0040 -20.9473 -20.9381 -20.9249 -20.8259 -20.8248
   -20.7951 -20.7949 -20.7736 -20.7723 -20.7538 -20.7535 -20.7399 -20.7380
    -6.9224  -6.3788  -5.7413  -5.0187  -4.1424  -3.4778  -2.8490  -2.6228
    -0.0303   0.0533   0.1768   0.5223   1.2656   2.1610   2.3849   2.8827
     2.9544   3.8907   4.1015   6.1642   6.2483   6.6722   7.4649   7.9778
     8.1547   8.3323   8.7190

     the Fermi energy is     3.2924 ev

!    total energy              =   -1428.61347186 Ry
     estimated scf accuracy    <       0.00000005 Ry
     smearing contrib. (-TS)   =      -0.00008727 Ry
     internal energy E=F+TS    =   -1428.61338459 Ry

     The total energy is F=E-TS. E is the sum of the following terms:
     one-electron contribution =   -4230.91427802 Ry
     hartree contribution      =    2167.79039791 Ry
     xc contribution           =    -348.50300284 Ry
     ewald contribution        =     983.01349835 Ry

     convergence has been achieved in   8 iterations

     Forces acting on atoms (cartesian axes, Ry/au):

     atom    1 type  1   force =    -0.00000055   -0.00000003   -0.00452595
     atom    2 type  1   force =    -0.00000016    0.00000008   -0.00795417
     atom    3 type  1   force =     0.00000010   -0.00000009    0.00495726
     atom    4 type  1   force =     0.00000062   -0.00000055   -0.00596399
     atom    5 type  1   force =     0.00000004    0.00000051    0.00586211
     atom    6 type  1   force =     0.00000004    0.00000036   -0.00503597
     atom    7 type  1   force =     0.00000021   -0.00000023    0.00802947
     atom    8 type  1   force =    -0.00000029   -0.00000005    0.00463125

     Total force =     0.017016     Total SCF correction =     0.001396
     Energy error            =      7.8E-04 Ry
     Gradient error          =      8.0E-03 Ry/Bohr

     number of scf cycles    =   5
     number of bfgs steps    =   4

     energy             old  =   -1428.6126903984 Ry
     energy             new  =   -1428.6134718625 Ry

     CASE: energy            _new < energy            _old

     new trust radius        =       0.0515644034 bohr
     new conv_thr            =       0.0000000781 Ry


ATOMIC_POSITIONS (angstrom)
Ge            1.0031811627        0.5791886769        7.4082705775
Ge            1.0031799610        0.5791906311        4.9272376740
Ge            3.0095486227        1.7375612853       10.7249872378
Ge            3.0095434465        1.7375644320        8.3074664193
Ge            5.0159134135        2.8959342546       13.9792787237
Ge            5.0159116848        2.8959348313       11.5610910853
Ge            1.0031876770        0.5791883452       17.3591466562
Ge            1.0031851639        0.5791862084       14.8782021819



     Writing output data file ./out/ge.save/
     NEW-OLD atomic charge density approx. for the potential

     negative rho (up, down):  4.410E-08 0.000E+00

     total cpu time spent up to now is       47.7 secs

     Self-consistent Calculation

     iteration #  1     ecut=    60.00 Ry     beta= 0.40
     Davidson diagonalization with overlap
     ethr =  1.00E-06,  avg # of iterations =  7.5

     total cpu time spent up to now is       49.9 secs

     total energy              =   -1428.61406301 Ry
     estimated scf accuracy    <       0.00048076 Ry

     iteration #  2     ecut=    60.00 Ry     beta= 0.40
     Davidson diagonalization with overlap
     ethr =  4.29E-07,  avg # of iterations =  4.7

     total cpu time spent up to now is       51.1 secs

     total energy              =   -1428.61392309 Ry
     estimated scf accuracy    <       0.00311001 Ry

     iteration #  3     ecut=    60.00 Ry     beta= 0.40
     Davidson diagonalization with overlap
     ethr =  4.29E-07,  avg # of iterations =  2.7

     total cpu time spent up to now is       52.0 secs

     total energy              =   -1428.61420088 Ry
     estimated scf accuracy    <       0.00019909 Ry

     iteration #  4     ecut=    60.00 Ry     beta= 0.40
     Davidson diagonalization with overlap
     ethr =  1.78E-07,  avg # of iterations =  2.0

     total cpu time spent up to now is       52.9 secs

     total energy              =   -1428.61420172 Ry
     estimated scf accuracy    <       0.00017893 Ry

     iteration #  5     ecut=    60.00 Ry     beta= 0.40
     Davidson diagonalization with overlap
     ethr =  1.60E-07,  avg # of iterations =  1.7

     total cpu time spent up to now is       53.8 secs

     total energy              =   -1428.61421578 Ry
     estimated scf accuracy    <       0.00022819 Ry

     iteration #  6     ecut=    60.00 Ry     beta= 0.40
     Davidson diagonalization with overlap
     ethr =  1.60E-07,  avg # of iterations =  1.0

     total cpu time spent up to now is       54.5 secs

     total energy              =   -1428.61422920 Ry
     estimated scf accuracy    <       0.00000189 Ry

     iteration #  7     ecut=    60.00 Ry     beta= 0.40
     Davidson diagonalization with overlap
     ethr =  1.69E-09,  avg # of iterations =  3.9

     total cpu time spent up to now is       55.6 secs

     total energy              =   -1428.61422935 Ry
     estimated scf accuracy    <       0.00000095 Ry

     iteration #  8     ecut=    60.00 Ry     beta= 0.40
     Davidson diagonalization with overlap
     ethr =  8.53E-10,  avg # of iterations =  2.0

     total cpu time spent up to now is       56.5 secs

     total energy              =   -1428.61422950 Ry
     estimated scf accuracy    <       0.00000014 Ry

     iteration #  9     ecut=    60.00 Ry     beta= 0.40
     Davidson diagonalization with overlap
     ethr =  1.25E-10,  avg # of iterations =  2.0

     total cpu time spent up to now is       57.3 secs

     End of self-consistent calculation

          k = 0.0000 0.0000 0.0000 ( 16519 PWs)   bands (ev):

   -21.4529 -21.4529 -21.4526 -21.4526 -21.3213 -21.3213 -21.3211 -21.3211
   -21.3099 -21.3080 -21.2358 -21.2358 -21.2041 -21.1970 -21.1683 -21.1683
   -21.0763 -21.0763 -21.0657 -21.0657 -21.0219 -21.0219 -21.0211 -21.0211
   -20.9715 -20.9715 -20.9435 -20.9435 -20.9316 -20.9273 -20.7621 -20.7621
   -20.7620 -20.7614 -20.7614 -20.7594 -20.7216 -20.7216 -20.7215 -20.7215
    -8.7085  -8.0281  -7.3280  -5.0412  -4.7564  -2.6234  -0.7433   1.2262
     2.5703   2.5703   2.9786   3.1276   3.1276   3.5879   3.5879   4.1689
     4.4034   4.6687   5.8193   5.8193   6.0308   6.0308   6.3681   6.9129
     7.0628   7.0628   7.7137

          k = 0.0000 0.2887 0.0000 ( 16480 PWs)   bands (ev):

   -21.4536 -21.4529 -21.4498 -21.4491 -21.3230 -21.3220 -21.3214 -21.3211
   -21.3068 -21.3066 -21.2483 -21.2425 -21.2159 -21.1758 -21.1459 -21.1351
   -21.0834 -21.0772 -21.0656 -21.0578 -21.0326 -21.0324 -21.0069 -20.9990
   -20.9870 -20.9746 -20.9709 -20.9305 -20.9222 -20.9128 -20.7839 -20.7831
   -20.7674 -20.7656 -20.7482 -20.7468 -20.7236 -20.7226 -20.7196 -20.7184
    -8.0593  -7.3948  -6.6979  -4.7648  -4.3939  -2.8244  -1.5476  -0.7001
     0.0781   1.0540   1.5939   2.0025   2.2272   2.6179   2.7579   3.5965
     3.9745   5.0953   5.4362   5.5366   5.6255   5.7104   6.6636   7.0687
     7.5203   7.9577   8.4175

          k = 0.0000-0.5774 0.0000 ( 16454 PWs)   bands (ev):

   -21.4544 -21.4526 -21.4498 -21.4481 -21.3239 -21.3209 -21.3205 -21.3179
   -21.3076 -21.3069 -21.2469 -21.2407 -21.2341 -21.1638 -21.1237 -21.0992
   -21.0929 -21.0903 -21.0614 -21.0437 -21.0351 -21.0267 -21.0090 -20.9953
   -20.9937 -20.9894 -20.9740 -20.9255 -20.9211 -20.9207 -20.7850 -20.7837
   -20.7702 -20.7696 -20.7478 -20.7468 -20.7302 -20.7300 -20.7198 -20.7170
    -6.7542  -6.2906  -5.7437  -5.0837  -4.1602  -3.6599  -3.0517  -2.9446
     0.2377   0.4804   0.9746   1.6229   1.7909   2.0525   2.1637   2.3267
     2.7282   4.8090   4.9410   5.1477   5.2205   5.2720   5.6527   7.3597
     7.4537   7.8937   8.2554

          k = 0.2500-0.7217 0.0000 ( 16437 PWs)   bands (ev):

   -21.4514 -21.4508 -21.4475 -21.4470 -21.3229 -21.3223 -21.3217 -21.3188
   -21.3077 -21.3060 -21.2574 -21.2431 -21.2318 -21.1373 -21.1137 -21.1112
   -21.0947 -21.0838 -21.0669 -21.0636 -21.0463 -21.0178 -21.0092 -20.9885
   -20.9866 -20.9840 -20.9761 -20.9250 -20.9167 -20.9120 -20.7961 -20.7951
   -20.7670 -20.7665 -20.7466 -20.7457 -20.7287 -20.7286 -20.7128 -20.7111
    -6.8965  -6.3231  -5.6977  -4.9938  -4.1112  -3.4678  -2.8272  -2.5927
    -0.0013   0.0938   0.2151   0.5645   1.2876   2.1604   2.3854   2.8733
     2.9444   3.8887   4.0933   6.1439   6.2244   6.6491   7.4209   7.9656
     8.1885   8.3315   8.7407

          k =-0.2500-0.1443 0.0000 ( 16480 PWs)   bands (ev):

   -21.4536 -21.4529 -21.4498 -21.4491 -21.3230 -21.3220 -21.3214 -21.3211
   -21.3068 -21.3066 -21.2483 -21.2425 -21.2159 -21.1758 -21.1459 -21.1351
   -21.0834 -21.0772 -21.0656 -21.0578 -21.0326 -21.0324 -21.0069 -20.9990
   -20.9870 -20.9746 -20.9709 -20.9305 -20.9222 -20.9128 -20.7839 -20.7831
   -20.7674 -20.7656 -20.7482 -20.7468 -20.7236 -20.7226 -20.7196 -20.7184
    -8.0593  -7.3948  -6.6979  -4.7648  -4.3939  -2.8244  -1.5476  -0.7001
     0.0781   1.0540   1.5939   2.0025   2.2272   2.6179   2.7579   3.5965
     3.9745   5.0953   5.4362   5.5366   5.6255   5.7104   6.6636   7.0687
     7.5203   7.9577   8.4175

          k = 0.2500-0.1443 0.0000 ( 16480 PWs)   bands (ev):

   -21.4536 -21.4529 -21.4498 -21.4491 -21.3230 -21.3220 -21.3214 -21.3211
   -21.3068 -21.3066 -21.2483 -21.2425 -21.2159 -21.1758 -21.1459 -21.1351
   -21.0834 -21.0772 -21.0656 -21.0578 -21.0326 -21.0324 -21.0069 -20.9990
   -20.9870 -20.9746 -20.9709 -20.9305 -20.9222 -20.9128 -20.7839 -20.7831
   -20.7674 -20.7656 -20.7482 -20.7468 -20.7236 -20.7226 -20.7196 -20.7184
    -8.0593  -7.3948  -6.6979  -4.7648  -4.3939  -2.8244  -1.5476  -0.7001
     0.0781   1.0540   1.5939   2.0025   2.2272   2.6179   2.7579   3.5965
     3.9745   5.0953   5.4362   5.5366   5.6255   5.7104   6.6636   7.0687
     7.5203   7.9577   8.4175

          k = 0.5000 0.2887 0.0000 ( 16454 PWs)   bands (ev):

   -21.4544 -21.4526 -21.4498 -21.4481 -21.3239 -21.3209 -21.3205 -21.3179
   -21.3076 -21.3069 -21.2469 -21.2407 -21.2341 -21.1638 -21.1237 -21.0992
   -21.0929 -21.0903 -21.0614 -21.0437 -21.0351 -21.0267 -21.0090 -20.9953
   -20.9937 -20.9894 -20.9740 -20.9255 -20.9211 -20.9207 -20.7850 -20.7837
   -20.7702 -20.7696 -20.7478 -20.7468 -20.7302 -20.7300 -20.7198 -20.7170
    -6.7542  -6.2906  -5.7437  -5.0837  -4.1601  -3.6599  -3.0517  -2.9446
     0.2377   0.4804   0.9746   1.6229   1.7909   2.0525   2.1637   2.3267
     2.7282   4.8090   4.9410   5.1477   5.2205   5.2720   5.6527   7.3597
     7.4537   7.8937   8.2554

          k =-0.5000 0.2887 0.0000 ( 16454 PWs)   bands (ev):

   -21.4544 -21.4526 -21.4498 -21.4481 -21.3239 -21.3209 -21.3205 -21.3179
   -21.3076 -21.3069 -21.2469 -21.2407 -21.2341 -21.1638 -21.1237 -21.0992
   -21.0929 -21.0903 -21.0614 -21.0437 -21.0351 -21.0267 -21.0090 -20.9953
   -20.9937 -20.9894 -20.9740 -20.9255 -20.9211 -20.9207 -20.7850 -20.7837
   -20.7702 -20.7696 -20.7478 -20.7468 -20.7302 -20.7300 -20.7198 -20.7170
    -6.7542  -6.2906  -5.7437  -5.0837  -4.1602  -3.6599  -3.0517  -2.9446
     0.2377   0.4804   0.9746   1.6229   1.7909   2.0525   2.1637   2.3267
     2.7282   4.8090   4.9410   5.1477   5.2205   5.2720   5.6527   7.3597
     7.4537   7.8937   8.2554

          k = 0.5000 0.5774 0.0000 ( 16437 PWs)   bands (ev):

   -21.4514 -21.4508 -21.4475 -21.4470 -21.3229 -21.3223 -21.3217 -21.3188
   -21.3077 -21.3060 -21.2574 -21.2431 -21.2318 -21.1373 -21.1137 -21.1112
   -21.0947 -21.0838 -21.0669 -21.0636 -21.0463 -21.0178 -21.0092 -20.9885
   -20.9866 -20.9840 -20.9761 -20.9250 -20.9167 -20.9120 -20.7961 -20.7951
   -20.7670 -20.7665 -20.7466 -20.7457 -20.7287 -20.7286 -20.7128 -20.7111
    -6.8965  -6.3231  -5.6977  -4.9938  -4.1112  -3.4678  -2.8272  -2.5927
    -0.0013   0.0938   0.2152   0.5645   1.2876   2.1604   2.3854   2.8733
     2.9444   3.8887   4.0932   6.1440   6.2244   6.6491   7.4209   7.9656
     8.1885   8.3315   8.7407

          k =-0.7500 0.1443 0.0000 ( 16437 PWs)   bands (ev):

   -21.4514 -21.4508 -21.4475 -21.4470 -21.3229 -21.3223 -21.3217 -21.3188
   -21.3077 -21.3060 -21.2574 -21.2431 -21.2318 -21.1373 -21.1137 -21.1112
   -21.0947 -21.0838 -21.0669 -21.0636 -21.0463 -21.0178 -21.0092 -20.9885
   -20.9866 -20.9840 -20.9761 -20.9250 -20.9167 -20.9120 -20.7961 -20.7951
   -20.7670 -20.7665 -20.7466 -20.7457 -20.7287 -20.7286 -20.7128 -20.7111
    -6.8965  -6.3231  -5.6977  -4.9938  -4.1112  -3.4678  -2.8272  -2.5927
    -0.0013   0.0938   0.2151   0.5645   1.2876   2.1604   2.3854   2.8733
     2.9444   3.8887   4.0932   6.1440   6.2244   6.6491   7.4209   7.9656
     8.1885   8.3315   8.7407

     the Fermi energy is     3.3368 ev

!    total energy              =   -1428.61422951 Ry
     estimated scf accuracy    <          8.7E-09 Ry
     smearing contrib. (-TS)   =      -0.00014597 Ry
     internal energy E=F+TS    =   -1428.61408354 Ry

     The total energy is F=E-TS. E is the sum of the following terms:
     one-electron contribution =   -4194.82807772 Ry
     hartree contribution      =    2149.81042108 Ry
     xc contribution           =    -348.48592552 Ry
     ewald contribution        =     964.88949863 Ry

     convergence has been achieved in   9 iterations

     Forces acting on atoms (cartesian axes, Ry/au):

     atom    1 type  1   force =    -0.00000045    0.00000051   -0.00279690
     atom    2 type  1   force =    -0.00000001    0.00000008   -0.00478647
     atom    3 type  1   force =    -0.00000051   -0.00000026    0.00637553
     atom    4 type  1   force =     0.00000047   -0.00000039   -0.01184867
     atom    5 type  1   force =    -0.00000009    0.00000065    0.01160794
     atom    6 type  1   force =     0.00000057    0.00000017   -0.00612371
     atom    7 type  1   force =     0.00000010   -0.00000013    0.00482011
     atom    8 type  1   force =    -0.00000008   -0.00000063    0.00275217

     Total force =     0.020367     Total SCF correction =     0.000133
     Energy error            =      7.6E-04 Ry
     Gradient error          =      1.2E-02 Ry/Bohr

     number of scf cycles    =   6
     number of bfgs steps    =   5

     energy             old  =   -1428.6134718625 Ry
     energy             new  =   -1428.6142295096 Ry

     CASE: energy            _new < energy            _old

     new trust radius        =       0.0583411003 bohr
     new conv_thr            =       0.0000000758 Ry


ATOMIC_POSITIONS (angstrom)
Ge            1.0031803200        0.5791896607        7.3877211838
Ge            1.0031789134        0.5791923987        4.8963923611
Ge            3.0095488383        1.7375605083       10.7280405768
Ge            3.0095421790        1.7375652675        8.3066680730
Ge            5.0159138690        2.8959332423       13.9800630951
Ge            5.0159120229        2.8959337401       11.5580895687
Ge            1.0031894829        0.5791885343       17.3900194369
Ge            1.0031855067        0.5791853129       14.8986862604



     Writing output data file ./out/ge.save/
     NEW-OLD atomic charge density approx. for the potential

     negative rho (up, down):  4.888E-08 0.000E+00

     total cpu time spent up to now is       57.6 secs

     Self-consistent Calculation

     iteration #  1     ecut=    60.00 Ry     beta= 0.40
     Davidson diagonalization with overlap
     ethr =  1.00E-06,  avg # of iterations =  6.7

     total cpu time spent up to now is       59.7 secs

     total energy              =   -1428.61473541 Ry
     estimated scf accuracy    <       0.00045966 Ry

     iteration #  2     ecut=    60.00 Ry     beta= 0.40
     Davidson diagonalization with overlap
     ethr =  4.10E-07,  avg # of iterations =  3.3

     total cpu time spent up to now is       60.7 secs

     total energy              =   -1428.61463899 Ry
     estimated scf accuracy    <       0.00178562 Ry

     iteration #  3     ecut=    60.00 Ry     beta= 0.40
     Davidson diagonalization with overlap
     ethr =  4.10E-07,  avg # of iterations =  3.8

     total cpu time spent up to now is       61.8 secs

     total energy              =   -1428.61482043 Ry
     estimated scf accuracy    <       0.00037629 Ry

     iteration #  4     ecut=    60.00 Ry     beta= 0.40
     Davidson diagonalization with overlap
     ethr =  3.36E-07,  avg # of iterations =  2.0

     total cpu time spent up to now is       62.6 secs

     total energy              =   -1428.61485413 Ry
[...]
     3.9497   5.1038   5.5226   5.5459   5.6176   5.7539   6.4343   7.0490
     7.4840   8.0273   8.3503

          k = 0.2500-0.1443 0.0000 ( 16480 PWs)   bands (ev):

   -21.4707 -21.4685 -21.4661 -21.4655 -21.3409 -21.3406 -21.3401 -21.3381
   -21.3223 -21.3217 -21.1537 -21.1532 -21.1157 -21.0860 -21.0646 -21.0553
   -21.0340 -21.0229 -21.0185 -21.0098 -20.9748 -20.9716 -20.9590 -20.9544
   -20.9408 -20.9214 -20.9163 -20.8826 -20.8595 -20.8582 -20.7513 -20.7499
   -20.7344 -20.7328 -20.7178 -20.7173 -20.6927 -20.6918 -20.6867 -20.6858
    -7.8276  -7.2778  -6.6457  -4.6947  -4.3995  -2.7162  -1.4928  -0.6765
     0.2158   1.0760   1.8067   1.9992   2.3305   2.6387   2.8173   3.5746
     3.9497   5.1038   5.5226   5.5459   5.6176   5.7539   6.4343   7.0490
     7.4840   8.0273   8.3503

          k = 0.5000 0.2887 0.0000 ( 16454 PWs)   bands (ev):

   -21.4717 -21.4680 -21.4662 -21.4645 -21.3409 -21.3395 -21.3383 -21.3369
   -21.3228 -21.3222 -21.1568 -21.1409 -21.1325 -21.0771 -21.0493 -21.0355
   -21.0265 -21.0193 -21.0069 -20.9880 -20.9819 -20.9779 -20.9588 -20.9539
   -20.9440 -20.9336 -20.9307 -20.8825 -20.8728 -20.8505 -20.7516 -20.7503
   -20.7385 -20.7372 -20.7169 -20.7166 -20.7023 -20.7011 -20.6863 -20.6852
    -6.5190  -6.1398  -5.6618  -4.9549  -4.1475  -3.5812  -3.0235  -2.9268
     0.3386   0.5775   1.1892   1.7258   1.7828   2.0550   2.2211   2.3045
     2.7174   4.8669   4.9679   5.1520   5.2112   5.3066   5.5421   7.2227
     7.3103   7.7755   8.2939

          k =-0.5000 0.2887 0.0000 ( 16454 PWs)   bands (ev):

   -21.4717 -21.4680 -21.4662 -21.4645 -21.3409 -21.3395 -21.3383 -21.3369
   -21.3228 -21.3222 -21.1568 -21.1409 -21.1325 -21.0771 -21.0493 -21.0355
   -21.0265 -21.0193 -21.0069 -20.9880 -20.9819 -20.9779 -20.9588 -20.9539
   -20.9440 -20.9336 -20.9307 -20.8825 -20.8728 -20.8505 -20.7516 -20.7503
   -20.7385 -20.7372 -20.7169 -20.7166 -20.7023 -20.7011 -20.6863 -20.6852
    -6.5190  -6.1398  -5.6618  -4.9549  -4.1475  -3.5812  -3.0235  -2.9268
     0.3386   0.5774   1.1892   1.7258   1.7828   2.0550   2.2211   2.3045
     2.7174   4.8669   4.9679   5.1520   5.2111   5.3066   5.5421   7.2227
     7.3103   7.7755   8.2939

          k = 0.5000 0.5774 0.0000 ( 16437 PWs)   bands (ev):

   -21.4682 -21.4667 -21.4643 -21.4629 -21.3413 -21.3398 -21.3394 -21.3374
   -21.3232 -21.3208 -21.1657 -21.1437 -21.1297 -21.0551 -21.0435 -21.0418
   -21.0313 -21.0221 -21.0024 -21.0002 -20.9841 -20.9670 -20.9536 -20.9483
   -20.9429 -20.9409 -20.9330 -20.8814 -20.8698 -20.8416 -20.7624 -20.7612
   -20.7351 -20.7343 -20.7165 -20.7153 -20.7006 -20.6996 -20.6799 -20.6795
    -6.6619  -6.1903  -5.6303  -4.8446  -4.0958  -3.4091  -2.7816  -2.5636
     0.1689   0.2250   0.3308   0.6248   1.3255   2.1805   2.3856   2.8753
     2.9143   3.8761   4.0747   6.0573   6.1042   6.4974   7.3381   7.9648
     8.2321   8.3850   8.8150

          k =-0.7500 0.1443 0.0000 ( 16437 PWs)   bands (ev):

   -21.4682 -21.4667 -21.4643 -21.4629 -21.3413 -21.3398 -21.3394 -21.3374
   -21.3232 -21.3208 -21.1657 -21.1437 -21.1297 -21.0551 -21.0435 -21.0418
   -21.0313 -21.0221 -21.0024 -21.0002 -20.9841 -20.9670 -20.9536 -20.9483
   -20.9429 -20.9409 -20.9330 -20.8814 -20.8698 -20.8416 -20.7624 -20.7612
   -20.7351 -20.7343 -20.7165 -20.7153 -20.7006 -20.6996 -20.6799 -20.6795
    -6.6619  -6.1903  -5.6303  -4.8446  -4.0958  -3.4091  -2.7816  -2.5636
     0.1689   0.2250   0.3308   0.6248   1.3255   2.1805   2.3856   2.8753
     2.9143   3.8761   4.0747   6.0573   6.1042   6.4974   7.3381   7.9648
     8.2321   8.3850   8.8150

     the Fermi energy is     3.3809 ev

!    total energy              =   -1428.61741670 Ry
     estimated scf accuracy    <       0.00000002 Ry
     smearing contrib. (-TS)   =      -0.00052037 Ry
     internal energy E=F+TS    =   -1428.61689633 Ry

     The total energy is F=E-TS. E is the sum of the following terms:
     one-electron contribution =   -3952.80980062 Ry
     hartree contribution      =    2028.94141729 Ry
     xc contribution           =    -348.40917311 Ry
     ewald contribution        =     843.66066011 Ry

     convergence has been achieved in   7 iterations

     Forces acting on atoms (cartesian axes, Ry/au):

     atom    1 type  1   force =     0.00000052   -0.00000034   -0.00023584
     atom    2 type  1   force =     0.00000002   -0.00000014   -0.00042751
     atom    3 type  1   force =     0.00000007    0.00000034   -0.00225710
     atom    4 type  1   force =    -0.00000033    0.00000020    0.00201158
     atom    5 type  1   force =     0.00000006   -0.00000038   -0.00186923
     atom    6 type  1   force =    -0.00000021   -0.00000004    0.00206542
     atom    7 type  1   force =    -0.00000017   -0.00000012    0.00049988
     atom    8 type  1   force =     0.00000005    0.00000048    0.00021280

     Total force =     0.004175     Total SCF correction =     0.000860
     SCF correction compared to forces is large: reduce conv_thr to get better values
     Energy error            =      1.1E-04 Ry
     Gradient error          =      2.3E-03 Ry/Bohr

     number of scf cycles    =  13
     number of bfgs steps    =  12

     energy             old  =   -1428.6173113970 Ry
     energy             new  =   -1428.6174167041 Ry

     CASE: energy            _new < energy            _old

     new trust radius        =       0.0046820950 bohr
     new conv_thr            =       0.0000000105 Ry


ATOMIC_POSITIONS (angstrom)
Ge            1.0031757498        0.5791934425        7.2966867017
Ge            1.0031761846        0.5791984898        4.8039099392
Ge            3.0095485385        1.7375567189       10.7018428737
Ge            3.0095411258        1.7375670035        8.2183062192
Ge            5.0159148882        2.8959315196       14.0679589104
Ge            5.0159129978        2.8959315091       11.5846201324
Ge            1.0031951391        0.5791889735       17.4825867466
Ge            1.0031865084        0.5791810078       14.9897690326



     Writing output data file ./out/ge.save/
     NEW-OLD atomic charge density approx. for the potential

     total cpu time spent up to now is      122.6 secs

     Self-consistent Calculation

     iteration #  1     ecut=    60.00 Ry     beta= 0.40
     Davidson diagonalization with overlap
     ethr =  1.00E-06,  avg # of iterations =  3.0

     Threshold (ethr) on eigenvalues was too large:
     Diagonalizing with lowered threshold

     Davidson diagonalization with overlap
     ethr =  5.70E-09,  avg # of iterations =  4.0

     total cpu time spent up to now is      125.0 secs

     total energy              =   -1428.61743460 Ry
     estimated scf accuracy    <       0.00000683 Ry

     iteration #  2     ecut=    60.00 Ry     beta= 0.40
     Davidson diagonalization with overlap
     ethr =  6.10E-09,  avg # of iterations =  2.8

     total cpu time spent up to now is      125.9 secs

     total energy              =   -1428.61742979 Ry
     estimated scf accuracy    <       0.00011968 Ry

     iteration #  3     ecut=    60.00 Ry     beta= 0.40
     Davidson diagonalization with overlap
     ethr =  6.10E-09,  avg # of iterations =  2.1

     total cpu time spent up to now is      126.8 secs

     total energy              =   -1428.61743780 Ry
     estimated scf accuracy    <       0.00000071 Ry

     iteration #  4     ecut=    60.00 Ry     beta= 0.40
     Davidson diagonalization with overlap
     ethr =  6.33E-10,  avg # of iterations =  2.1

     total cpu time spent up to now is      127.7 secs

     total energy              =   -1428.61743795 Ry
     estimated scf accuracy    <       0.00000034 Ry

     iteration #  5     ecut=    60.00 Ry     beta= 0.40
     Davidson diagonalization with overlap
     ethr =  3.03E-10,  avg # of iterations =  1.1

     total cpu time spent up to now is      128.5 secs

     total energy              =   -1428.61743796 Ry
     estimated scf accuracy    <       0.00000012 Ry

     iteration #  6     ecut=    60.00 Ry     beta= 0.40
     Davidson diagonalization with overlap
     ethr =  1.04E-10,  avg # of iterations =  2.2

     total cpu time spent up to now is      129.4 secs

     total energy              =   -1428.61743797 Ry
     estimated scf accuracy    <       0.00000048 Ry

     iteration #  7     ecut=    60.00 Ry     beta= 0.40
     Davidson diagonalization with overlap
     ethr =  1.04E-10,  avg # of iterations =  1.4

     total cpu time spent up to now is      130.2 secs

     End of self-consistent calculation

          k = 0.0000 0.0000 0.0000 ( 16519 PWs)   bands (ev):

   -21.4707 -21.4707 -21.4696 -21.4696 -21.3418 -21.3418 -21.3391 -21.3391
   -21.3261 -21.3249 -21.1452 -21.1452 -21.1014 -21.1005 -21.0823 -21.0823
   -21.0259 -21.0259 -21.0202 -21.0202 -20.9725 -20.9725 -20.9721 -20.9721
   -20.9038 -20.9038 -20.8931 -20.8917 -20.8674 -20.8674 -20.7327 -20.7280
   -20.7278 -20.7278 -20.7261 -20.7261 -20.6887 -20.6887 -20.6869 -20.6869
    -8.4752  -7.9107  -7.2708  -4.9954  -4.7655  -2.5429  -0.7739   1.1045
     2.7842   2.7842   2.9460   3.2415   3.2415   3.6722   3.6722   4.3488
     4.3765   4.7307   5.8621   5.8621   6.0318   6.0318   6.2433   6.8492
     7.1170   7.1170   7.7440

          k = 0.0000 0.2887 0.0000 ( 16480 PWs)   bands (ev):

   -21.4717 -21.4695 -21.4671 -21.4666 -21.3420 -21.3417 -21.3413 -21.3392
   -21.3234 -21.3229 -21.1504 -21.1500 -21.1149 -21.0850 -21.0624 -21.0537
   -21.0325 -21.0214 -21.0163 -21.0077 -20.9732 -20.9700 -20.9575 -20.9529
   -20.9381 -20.9189 -20.9134 -20.8797 -20.8567 -20.8556 -20.7500 -20.7485
   -20.7331 -20.7315 -20.7166 -20.7162 -20.6916 -20.6907 -20.6856 -20.6847
    -7.8261  -7.2757  -6.6378  -4.6991  -4.3996  -2.7240  -1.4944  -0.6697
     0.2198   1.0779   1.8120   1.9977   2.3351   2.6329   2.8277   3.5740
     3.9472   5.1029   5.5276   5.5442   5.6169   5.7578   6.4370   7.0507
     7.4845   8.0183   8.3534

          k = 0.0000-0.5774 0.0000 ( 16454 PWs)   bands (ev):

   -21.4727 -21.4691 -21.4672 -21.4655 -21.3420 -21.3407 -21.3395 -21.3380
   -21.3239 -21.3233 -21.1528 -21.1390 -21.1313 -21.0742 -21.0474 -21.0340
   -21.0254 -21.0182 -21.0041 -20.9859 -20.9800 -20.9759 -20.9570 -20.9521
   -20.9424 -20.9307 -20.9288 -20.8797 -20.8700 -20.8480 -20.7503 -20.7490
   -20.7372 -20.7359 -20.7156 -20.7154 -20.7013 -20.7001 -20.6852 -20.6841
    -6.5199  -6.1399  -5.6573  -4.9579  -4.1424  -3.5718  -3.0228  -2.9245
     0.3349   0.5713   1.1947   1.7306   1.7806   2.0534   2.2318   2.3036
     2.7130   4.8667   4.9756   5.1504   5.2104   5.3089   5.5409   7.2339
     7.3103   7.7764   8.2813

          k = 0.2500-0.7217 0.0000 ( 16437 PWs)   bands (ev):

   -21.4692 -21.4677 -21.4653 -21.4640 -21.3425 -21.3410 -21.3406 -21.3386
   -21.3243 -21.3219 -21.1615 -21.1420 -21.1286 -21.0528 -21.0422 -21.0402
   -21.0295 -21.0199 -21.0004 -20.9982 -20.9817 -20.9646 -20.9515 -20.9466
   -20.9412 -20.9391 -20.9308 -20.8785 -20.8670 -20.8393 -20.7610 -20.7597
   -20.7338 -20.7331 -20.7153 -20.7141 -20.6996 -20.6986 -20.6788 -20.6785
    -6.6622  -6.1899  -5.6252  -4.8488  -4.0918  -3.4046  -2.7801  -2.5581
     0.1746   0.2246   0.3353   0.6273   1.3227   2.1782   2.3852   2.8728
     2.9136   3.8751   4.0733   6.0543   6.1025   6.4945   7.3355   7.9614
     8.2337   8.3915   8.8184

          k =-0.2500-0.1443 0.0000 ( 16480 PWs)   bands (ev):

   -21.4717 -21.4695 -21.4671 -21.4666 -21.3420 -21.3417 -21.3413 -21.3392
   -21.3234 -21.3229 -21.1504 -21.1500 -21.1149 -21.0850 -21.0624 -21.0537
   -21.0325 -21.0214 -21.0163 -21.0077 -20.9732 -20.9700 -20.9575 -20.9529
   -20.9381 -20.9189 -20.9134 -20.8797 -20.8567 -20.8556 -20.7500 -20.7485
   -20.7331 -20.7315 -20.7166 -20.7162 -20.6916 -20.6907 -20.6856 -20.6847
    -7.8261  -7.2757  -6.6378  -4.6991  -4.3996  -2.7240  -1.4944  -0.6697
     0.2198   1.0779   1.8120   1.9977   2.3351   2.6329   2.8277   3.5740
     3.9472   5.1029   5.5277   5.5442   5.6169   5.7578   6.4370   7.0507
     7.4845   8.0183   8.3534

          k = 0.2500-0.1443 0.0000 ( 16480 PWs)   bands (ev):

   -21.4717 -21.4695 -21.4671 -21.4666 -21.3420 -21.3417 -21.3413 -21.3392
   -21.3234 -21.3229 -21.1504 -21.1500 -21.1149 -21.0850 -21.0624 -21.0537
   -21.0325 -21.0214 -21.0163 -21.0077 -20.9732 -20.9700 -20.9575 -20.9529
   -20.9381 -20.9189 -20.9134 -20.8797 -20.8567 -20.8556 -20.7500 -20.7485
   -20.7331 -20.7315 -20.7166 -20.7162 -20.6916 -20.6907 -20.6856 -20.6847
    -7.8261  -7.2757  -6.6378  -4.6991  -4.3996  -2.7240  -1.4944  -0.6697
     0.2198   1.0779   1.8120   1.9977   2.3351   2.6328   2.8277   3.5740
     3.9472   5.1029   5.5277   5.5442   5.6169   5.7578   6.4370   7.0507
     7.4845   8.0182   8.3534

          k = 0.5000 0.2887 0.0000 ( 16454 PWs)   bands (ev):

   -21.4727 -21.4691 -21.4672 -21.4655 -21.3420 -21.3407 -21.3395 -21.3380
   -21.3239 -21.3233 -21.1528 -21.1390 -21.1313 -21.0742 -21.0474 -21.0340
   -21.0254 -21.0182 -21.0041 -20.9859 -20.9800 -20.9759 -20.9570 -20.9521
   -20.9424 -20.9307 -20.9288 -20.8797 -20.8700 -20.8480 -20.7503 -20.7490
   -20.7372 -20.7359 -20.7156 -20.7154 -20.7013 -20.7001 -20.6852 -20.6841
    -6.5199  -6.1399  -5.6573  -4.9579  -4.1424  -3.5718  -3.0228  -2.9245
     0.3349   0.5713   1.1947   1.7306   1.7806   2.0534   2.2318   2.3036
     2.7130   4.8667   4.9756   5.1504   5.2104   5.3089   5.5409   7.2339
     7.3103   7.7764   8.2813

          k =-0.5000 0.2887 0.0000 ( 16454 PWs)   bands (ev):

   -21.4727 -21.4691 -21.4672 -21.4655 -21.3420 -21.3407 -21.3395 -21.3380
   -21.3239 -21.3233 -21.1528 -21.1390 -21.1313 -21.0742 -21.0474 -21.0340
   -21.0254 -21.0182 -21.0041 -20.9859 -20.9800 -20.9759 -20.9570 -20.9521
   -20.9424 -20.9307 -20.9288 -20.8797 -20.8700 -20.8480 -20.7503 -20.7490
   -20.7372 -20.7359 -20.7156 -20.7154 -20.7013 -20.7001 -20.6852 -20.6841
    -6.5199  -6.1399  -5.6573  -4.9579  -4.1424  -3.5718  -3.0228  -2.9245
     0.3349   0.5713   1.1947   1.7306   1.7805   2.0534   2.2318   2.3036
     2.7130   4.8667   4.9756   5.1504   5.2104   5.3089   5.5409   7.2339
     7.3103   7.7764   8.2813

          k = 0.5000 0.5774 0.0000 ( 16437 PWs)   bands (ev):

   -21.4692 -21.4677 -21.4653 -21.4640 -21.3425 -21.3410 -21.3406 -21.3386
   -21.3243 -21.3219 -21.1615 -21.1420 -21.1286 -21.0528 -21.0422 -21.0402
   -21.0295 -21.0199 -21.0004 -20.9982 -20.9817 -20.9646 -20.9515 -20.9466
   -20.9412 -20.9391 -20.9308 -20.8785 -20.8670 -20.8393 -20.7610 -20.7597
   -20.7338 -20.7331 -20.7153 -20.7141 -20.6996 -20.6986 -20.6788 -20.6785
    -6.6622  -6.1899  -5.6252  -4.8488  -4.0918  -3.4046  -2.7801  -2.5581
     0.1746   0.2246   0.3353   0.6273   1.3227   2.1782   2.3852   2.8728
     2.9136   3.8751   4.0733   6.0544   6.1025   6.4945   7.3355   7.9614
     8.2336   8.3915   8.8184

          k =-0.7500 0.1443 0.0000 ( 16437 PWs)   bands (ev):

   -21.4692 -21.4677 -21.4653 -21.4640 -21.3425 -21.3410 -21.3406 -21.3386
   -21.3243 -21.3219 -21.1615 -21.1420 -21.1286 -21.0528 -21.0422 -21.0402
   -21.0295 -21.0199 -21.0004 -20.9982 -20.9817 -20.9646 -20.9515 -20.9466
   -20.9412 -20.9391 -20.9308 -20.8785 -20.8670 -20.8393 -20.7610 -20.7597
   -20.7338 -20.7331 -20.7153 -20.7141 -20.6996 -20.6986 -20.6788 -20.6785
    -6.6622  -6.1899  -5.6252  -4.8488  -4.0918  -3.4046  -2.7801  -2.5581
     0.1746   0.2246   0.3353   0.6273   1.3227   2.1782   2.3852   2.8728
     2.9136   3.8751   4.0733   6.0544   6.1025   6.4945   7.3355   7.9614
     8.2336   8.3915   8.8184

     the Fermi energy is     3.3826 ev

!    total energy              =   -1428.61743799 Ry
     estimated scf accuracy    <          3.4E-09 Ry
     smearing contrib. (-TS)   =      -0.00054025 Ry
     internal energy E=F+TS    =   -1428.61689774 Ry

     The total energy is F=E-TS. E is the sum of the following terms:
     one-electron contribution =   -3953.44789961 Ry
     hartree contribution      =    2029.26564716 Ry
     xc contribution           =    -348.40884365 Ry
     ewald contribution        =     843.97419835 Ry

     convergence has been achieved in   7 iterations

     Forces acting on atoms (cartesian axes, Ry/au):

     atom    1 type  1   force =     0.00000035   -0.00000026    0.00022857
     atom    2 type  1   force =     0.00000003   -0.00000014   -0.00049926
     atom    3 type  1   force =     0.00000002    0.00000020   -0.00023753
     atom    4 type  1   force =    -0.00000015    0.00000007    0.00052112
     atom    5 type  1   force =     0.00000000   -0.00000018   -0.00043084
     atom    6 type  1   force =    -0.00000003    0.00000003    0.00021029
     atom    7 type  1   force =    -0.00000014   -0.00000014    0.00044555
     atom    8 type  1   force =    -0.00000008    0.00000043   -0.00023790

     Total force =     0.001056     Total SCF correction =     0.000404
     SCF correction compared to forces is large: reduce conv_thr to get better values
     Energy error            =      2.1E-05 Ry
     Gradient error          =      5.2E-04 Ry/Bohr

     bfgs converged in  14 scf cycles and  13 bfgs steps
     (criteria: energy <  1.0E-04 Ry, force <  1.0E-03 Ry/Bohr)

     End of BFGS Geometry Optimization

     Final energy             =   -1428.6174379939 Ry

     File ./out/ge.bfgs deleted, as requested
Begin final coordinates

ATOMIC_POSITIONS (angstrom)
Ge            1.0031757498        0.5791934425        7.2966867017
Ge            1.0031761846        0.5791984898        4.8039099392
Ge            3.0095485385        1.7375567189       10.7018428737
Ge            3.0095411258        1.7375670035        8.2183062192
Ge            5.0159148882        2.8959315196       14.0679589104
Ge            5.0159129978        2.8959315091       11.5846201324
Ge            1.0031951391        0.5791889735       17.4825867466
Ge            1.0031865084        0.5791810078       14.9897690326
End final coordinates



     Writing output data file ./out/ge.save/
 
     init_run     :      0.33s CPU      1.20s WALL (       1 calls)
     electrons    :     94.16s CPU    125.48s WALL (      14 calls)
     update_pot   :      0.46s CPU      0.66s WALL (      13 calls)
     forces       :      1.54s CPU      2.37s WALL (      14 calls)

     Called by init_run:
     wfcinit      :      0.28s CPU      1.08s WALL (       1 calls)
     potinit      :      0.02s CPU      0.03s WALL (       1 calls)
     hinit0       :      0.01s CPU      0.05s WALL (       1 calls)

     Called by electrons:
     c_bands      :     83.03s CPU    112.69s WALL (     121 calls)
     sum_band     :     10.51s CPU     11.68s WALL (     121 calls)
     v_of_rho     :      0.50s CPU      0.69s WALL (     130 calls)
     mix_rho      :      0.10s CPU      0.12s WALL (     121 calls)

     Called by c_bands:
     init_us_2    :      0.76s CPU      0.91s WALL (    2570 calls)
     cegterg      :     79.01s CPU    107.22s WALL (    1210 calls)

     Called by *egterg:
     cdiaghg      :     15.35s CPU     33.06s WALL (    4485 calls)
     h_psi        :     50.20s CPU     57.37s WALL (    4675 calls)
     g_psi        :      0.16s CPU      0.18s WALL (    3455 calls)

     Called by h_psi:
     h_psi:calbec :      2.98s CPU      3.83s WALL (    4675 calls)
     vloc_psi     :     45.28s CPU     51.39s WALL (    4675 calls)
     add_vuspsi   :      1.71s CPU      1.90s WALL (    4675 calls)

     General routines
     calbec       :      3.66s CPU      5.28s WALL (    5235 calls)
     fft          :      0.52s CPU      0.92s WALL (    1458 calls)
     ffts         :      0.03s CPU      0.03s WALL (     121 calls)
     fftw         :     49.86s CPU     56.43s WALL (  477446 calls)
 
     Parallel routines
 
     PWSCF        :   1m36.88s CPU   2m10.96s WALL

 
   This run was terminated on:  10:46:59  28Apr2025            

=------------------------------------------------------------------------------=
   JOB DONE.
=------------------------------------------------------------------------------=
