
     Program PWSCF v.7.2 starts on 28Apr2025 at  7:55:50 

     This program is part of the open-source Quantum ESPRESSO suite
     for quantum simulation of materials; please cite
         "P. Giannozzi et al., J. Phys.:Condens. Matter 21 395502 (2009);
         "P. Giannozzi et al., J. Phys.:Condens. Matter 29 465901 (2017);
         "P. Giannozzi et al., J. Chem. Phys. 152 154105 (2020);
          URL http://www.quantum-espresso.org", 
     in publications or presentations arising from this work. More details at
     http://www.quantum-espresso.org/quote

     Parallel version (MPI), running on    16 processors

     MPI processes distributed on     1 nodes
     200687 MiB available memory on the printing compute node when the environment starts

     Waiting for input...
     Reading input from standard input
Warning: card &CELL ignored
Warning: card / ignored
Warning: card &FCP ignored
Warning: card / ignored
Warning: card &RISM ignored
Warning: card / ignored

     Current dimensions of program PWSCF are:
     Max number of different atomic species (ntypx) = 10
     Max number of k-points (npk) =  40000
     Max angular momentum in pseudopotentials (lmaxx) =  4
     Message from routine find_sym:
     Not a group! Trying with lower acceptance parameter...
     Message from routine find_sym:
     Still not a group! symmetry disabled

     K-points division:     npool     =       4
     R & G space division:  proc/nbgrp/npool/nimage =       4
     Subspace diagonalization in iterative solution of the eigenvalue problem:
     a serial algorithm will be used


     Parallelization info
     --------------------
     sticks:   dense  smooth     PW     G-vecs:    dense   smooth      PW
     Min         238     238     70                32934    32934    5194
     Max         239     239     71                32953    32953    5203
     Sum         955     955    283               131793   131793   20795

     Using Slab Decomposition



     bravais-lattice index     =            0
     lattice parameter (alat)  =       7.5830  a.u.
     unit-cell volume          =    2097.2343 (a.u.)^3
     number of atoms/cell      =            8
     number of atomic types    =            1
     number of electrons       =       112.00
     number of Kohn-Sham states=           67
     kinetic-energy cutoff     =      60.0000  Ry
     charge density cutoff     =     240.0000  Ry
     scf convergence threshold =      1.0E-06
     mixing beta               =       0.4000
     number of iterations used =            8  plain     mixing
     energy convergence thresh.=      1.0E-04
     force convergence thresh. =      1.0E-03
     Exchange-correlation= PBE
                           (   1   4   3   4   0   0   0)
     nstep                     =           50


     celldm(1)=   7.582957  celldm(2)=   0.000000  celldm(3)=   0.000000
     celldm(4)=   0.000000  celldm(5)=   0.000000  celldm(6)=   0.000000

     crystal axes: (cart. coord. in units of alat)
               a(1) = (   1.000000   0.000000   0.000000 )  
               a(2) = (   0.500000   0.866025   0.000000 )  
               a(3) = (   0.000000   0.000000   5.553933 )  

     reciprocal axes: (cart. coord. in units 2 pi/alat)
               b(1) = (  1.000000 -0.577351  0.000000 )  
               b(2) = (  0.000000  1.154701  0.000000 )  
               b(3) = (  0.000000  0.000000  0.180053 )  


     PseudoPot. # 1 for Ge read from file:
     ./Ge.upf
     MD5 check sum: 087fa14d6c89b52166990835c3b338da
     Pseudo is Norm-conserving + core correction, Zval = 14.0
     Generated using ONCVPSP code by D. R. Hamann
     Using radial grid of 1560 points,  6 beta functions with: 
                l(1) =   0
                l(2) =   0
                l(3) =   1
                l(4) =   1
                l(5) =   2
                l(6) =   2

     atomic species   valence    mass     pseudopotential
        Ge            14.00    72.63000     Ge( 1.00)

     No symmetry found



   Cartesian axes

     site n.     atom                  positions (alat units)
         1           Ge  tau(   1) = (   0.2500002   0.1443376   1.8584076  )
         2           Ge  tau(   2) = (   0.2500001   0.1443376   1.2460352  )
         3           Ge  tau(   3) = (   0.7500004   0.4330127   2.6749042  )
         4           Ge  tau(   4) = (   0.7500003   0.4330127   2.0625318  )
         5           Ge  tau(   5) = (   1.2500006   0.7216879   3.4914008  )
         6           Ge  tau(   6) = (   1.2500005   0.7216879   2.8790284  )
         7           Ge  tau(   7) = (   0.2500006   0.1443376   4.3078975  )
         8           Ge  tau(   8) = (   0.2500005   0.1443376   3.6955250  )

     number of k points=    10  Gaussian smearing, width (Ry)=  0.0100
                       cart. coord. in units 2pi/alat
        k(    1) = (   0.0000000   0.0000000   0.0000000), wk =   0.1250000
        k(    2) = (   0.0000000   0.2886751   0.0000000), wk =   0.2500000
        k(    3) = (   0.0000000  -0.5773503   0.0000000), wk =   0.1250000
        k(    4) = (   0.2500000  -0.7216879   0.0000000), wk =   0.2500000
        k(    5) = (  -0.2500000  -0.1443375   0.0000000), wk =   0.2500000
        k(    6) = (   0.2500000  -0.1443376   0.0000000), wk =   0.2500000
        k(    7) = (   0.5000000   0.2886750   0.0000000), wk =   0.1250000
        k(    8) = (  -0.5000000   0.2886753   0.0000000), wk =   0.1250000
        k(    9) = (   0.5000000   0.5773501   0.0000000), wk =   0.2500000
        k(   10) = (  -0.7500000   0.1443378   0.0000000), wk =   0.2500000

     Dense  grid:   131793 G-vectors     FFT dimensions: (  48,  48, 216)

     Estimated max dynamical RAM per process >      67.15 MB

     Estimated total dynamical RAM >     977.87 MB

     Initial potential from superposition of free atoms

     starting charge     111.9934, renormalised to     112.0000

     negative rho (up, down):  5.023E-06 0.000E+00
     Starting wfcs are   72 randomized atomic wfcs

     total cpu time spent up to now is        7.3 secs

     Self-consistent Calculation

     iteration #  1     ecut=    60.00 Ry     beta= 0.40
     Davidson diagonalization with overlap
     ethr =  1.00E-02,  avg # of iterations =  3.1

     Threshold (ethr) on eigenvalues was too large:
     Diagonalizing with lowered threshold

     Davidson diagonalization with overlap
     ethr =  3.78E-04,  avg # of iterations =  3.5

     negative rho (up, down):  1.355E-06 0.000E+00

     total cpu time spent up to now is       32.9 secs

     total energy              =   -1428.43847562 Ry
     estimated scf accuracy    <       0.46204532 Ry

     iteration #  2     ecut=    60.00 Ry     beta= 0.40
     Davidson diagonalization with overlap
     ethr =  4.13E-04,  avg # of iterations =  7.8

     negative rho (up, down):  2.772E-07 0.000E+00

     total cpu time spent up to now is       47.2 secs

     total energy              =   -1427.70767777 Ry
     estimated scf accuracy    <      17.55623159 Ry

     iteration #  3     ecut=    60.00 Ry     beta= 0.40
     Davidson diagonalization with overlap
     ethr =  4.13E-04,  avg # of iterations =  7.6

     total cpu time spent up to now is       60.7 secs

     total energy              =   -1428.60282996 Ry
     estimated scf accuracy    <       0.18574709 Ry

     iteration #  4     ecut=    60.00 Ry     beta= 0.40
     Davidson diagonalization with overlap
     ethr =  1.66E-04,  avg # of iterations =  2.2

     total cpu time spent up to now is       71.4 secs

     total energy              =   -1428.60826984 Ry
     estimated scf accuracy    <       0.01628003 Ry

     iteration #  5     ecut=    60.00 Ry     beta= 0.40
     Davidson diagonalization with overlap
     ethr =  1.45E-05,  avg # of iterations = 13.7

     total cpu time spent up to now is       84.7 secs

     total energy              =   -1428.60902505 Ry
     estimated scf accuracy    <       0.01260991 Ry

     iteration #  6     ecut=    60.00 Ry     beta= 0.40
     Davidson diagonalization with overlap
     ethr =  1.13E-05,  avg # of iterations =  3.0

     total cpu time spent up to now is       95.6 secs

     total energy              =   -1428.61007498 Ry
     estimated scf accuracy    <       0.00285206 Ry

     iteration #  7     ecut=    60.00 Ry     beta= 0.40
     Davidson diagonalization with overlap
     ethr =  2.55E-06,  avg # of iterations =  1.9

     total cpu time spent up to now is      106.1 secs

     total energy              =   -1428.61021453 Ry
     estimated scf accuracy    <       0.00019482 Ry

     iteration #  8     ecut=    60.00 Ry     beta= 0.40
     Davidson diagonalization with overlap
     ethr =  1.74E-07,  avg # of iterations =  3.1

     total cpu time spent up to now is      117.4 secs

     total energy              =   -1428.61024505 Ry
     estimated scf accuracy    <       0.00007100 Ry

     iteration #  9     ecut=    60.00 Ry     beta= 0.40
     Davidson diagonalization with overlap
     ethr =  6.34E-08,  avg # of iterations =  2.0

     total cpu time spent up to now is      128.1 secs

     total energy              =   -1428.61025459 Ry
     estimated scf accuracy    <       0.00000395 Ry

     iteration # 10     ecut=    60.00 Ry     beta= 0.40
     Davidson diagonalization with overlap
     ethr =  3.53E-09,  avg # of iterations =  2.2

     total cpu time spent up to now is      139.4 secs

     End of self-consistent calculation

          k = 0.0000 0.0000 0.0000 ( 16519 PWs)   bands (ev):

   -21.4106 -21.4106 -21.4092 -21.4092 -21.2813 -21.2813 -21.2773 -21.2766
   -21.2766 -21.2755 -21.2729 -21.2729 -21.2428 -21.2335 -21.2117 -21.2117
   -21.1748 -21.1748 -21.1612 -21.1612 -21.1177 -21.1177 -21.1164 -21.1164
   -21.0184 -21.0183 -21.0178 -21.0080 -20.9845 -20.9845 -20.8523 -20.8523
   -20.8520 -20.8520 -20.8416 -20.8378 -20.8104 -20.8104 -20.8076 -20.8076
    -8.7939  -8.2256  -7.4885  -5.0243  -4.7534  -2.4990  -0.6313   1.2892
     2.4703   2.4703   2.9016   2.9016   3.1214   3.3956   3.3956   3.9907
     4.3597   4.3868   5.8103   5.8103   6.0121   6.0122   6.3186   7.0441
     7.0608   7.0610   7.6095

          k = 0.0000 0.2887 0.0000 ( 16480 PWs)   bands (ev):

   -21.4106 -21.4100 -21.4073 -21.4057 -21.2856 -21.2811 -21.2805 -21.2794
   -21.2792 -21.2779 -21.2757 -21.2752 -21.2539 -21.2187 -21.1985 -21.1880
   -21.1833 -21.1679 -21.1581 -21.1508 -21.1158 -21.1122 -21.0970 -21.0923
   -21.0655 -21.0372 -21.0354 -20.9958 -20.9704 -20.9693 -20.8736 -20.8730
   -20.8561 -20.8549 -20.8290 -20.8276 -20.8064 -20.8049 -20.8044 -20.8041
    -8.1386  -7.5845  -6.8538  -4.7517  -4.4041  -2.7574  -1.5959  -0.8165
    -0.0235   0.9511   1.4828   1.9934   2.0371   2.5692   2.6780   3.5971
     4.0248   5.1180   5.3189   5.5550   5.5708   5.6385   6.7078   7.1013
     7.5199   8.0296   8.4181

          k = 0.0000-0.5774 0.0000 ( 16454 PWs)   bands (ev):

   -21.4111 -21.4100 -21.4065 -21.4056 -21.2863 -21.2833 -21.2826 -21.2780
   -21.2775 -21.2768 -21.2752 -21.2722 -21.2697 -21.2063 -21.1946 -21.1898
   -21.1639 -21.1565 -21.1426 -21.1402 -21.1261 -21.1094 -21.0916 -21.0883
   -21.0784 -21.0524 -21.0503 -20.9923 -20.9827 -20.9606 -20.8737 -20.8731
   -20.8570 -20.8564 -20.8303 -20.8301 -20.8058 -20.8051 -20.8040 -20.8029
    -6.8027  -6.4333  -5.8946  -5.1426  -4.2865  -3.7853  -3.0825  -3.0177
     0.2248   0.5078   0.8593   1.3841   1.8197   1.9731   2.0674   2.3560
     2.7976   4.6661   4.9598   5.1025   5.1686   5.2374   5.7005   7.2304
     7.5749   7.9999   8.3773

          k = 0.2500-0.7217 0.0000 ( 16437 PWs)   bands (ev):

   -21.4084 -21.4079 -21.4047 -21.4039 -21.2980 -21.2841 -21.2824 -21.2783
   -21.2778 -21.2768 -21.2764 -21.2735 -21.2669 -21.2011 -21.1983 -21.1802
   -21.1645 -21.1594 -21.1354 -21.1323 -21.1165 -21.1065 -21.0908 -21.0814
   -21.0799 -21.0712 -21.0508 -20.9934 -20.9817 -20.9484 -20.8887 -20.8875
   -20.8540 -20.8533 -20.8297 -20.8275 -20.8042 -20.8040 -20.7957 -20.7936
    -6.9563  -6.4790  -5.8379  -5.0333  -4.2223  -3.5158  -2.8940  -2.7026
    -0.1184  -0.0286   0.1028   0.4520   1.2496   2.1795   2.3906   2.9161
     2.9787   3.9020   4.1268   6.2181   6.2956   6.7218   7.5545   7.9670
     8.0670   8.3176   8.6480

          k =-0.2500-0.1443 0.0000 ( 16480 PWs)   bands (ev):

   -21.4106 -21.4100 -21.4073 -21.4057 -21.2856 -21.2811 -21.2805 -21.2794
   -21.2792 -21.2779 -21.2757 -21.2752 -21.2539 -21.2187 -21.1985 -21.1880
   -21.1833 -21.1679 -21.1581 -21.1508 -21.1158 -21.1122 -21.0970 -21.0923
   -21.0655 -21.0372 -21.0354 -20.9958 -20.9704 -20.9693 -20.8736 -20.8730
   -20.8561 -20.8549 -20.8290 -20.8276 -20.8064 -20.8049 -20.8044 -20.8041
    -8.1386  -7.5845  -6.8538  -4.7517  -4.4041  -2.7574  -1.5959  -0.8165
    -0.0235   0.9511   1.4828   1.9934   2.0371   2.5692   2.6780   3.5971
     4.0248   5.1180   5.3189   5.5550   5.5708   5.6385   6.7078   7.1013
     7.5199   8.0296   8.4181

          k = 0.2500-0.1443 0.0000 ( 16480 PWs)   bands (ev):

   -21.4106 -21.4100 -21.4073 -21.4057 -21.2856 -21.2811 -21.2805 -21.2794
   -21.2792 -21.2779 -21.2757 -21.2752 -21.2539 -21.2187 -21.1985 -21.1880
   -21.1833 -21.1679 -21.1581 -21.1508 -21.1158 -21.1122 -21.0970 -21.0923
   -21.0655 -21.0372 -21.0354 -20.9958 -20.9704 -20.9693 -20.8736 -20.8730
   -20.8561 -20.8549 -20.8290 -20.8276 -20.8064 -20.8049 -20.8044 -20.8041
    -8.1386  -7.5845  -6.8538  -4.7517  -4.4041  -2.7574  -1.5959  -0.8165
    -0.0235   0.9511   1.4828   1.9934   2.0371   2.5692   2.6780   3.5971
     4.0248   5.1180   5.3189   5.5550   5.5708   5.6385   6.7078   7.1013
     7.5199   8.0296   8.4181

          k = 0.5000 0.2887 0.0000 ( 16454 PWs)   bands (ev):

   -21.4111 -21.4100 -21.4065 -21.4056 -21.2863 -21.2833 -21.2826 -21.2780
   -21.2775 -21.2768 -21.2752 -21.2722 -21.2697 -21.2063 -21.1946 -21.1898
   -21.1639 -21.1565 -21.1426 -21.1402 -21.1261 -21.1094 -21.0916 -21.0883
   -21.0784 -21.0524 -21.0503 -20.9923 -20.9827 -20.9606 -20.8737 -20.8731
   -20.8570 -20.8564 -20.8303 -20.8301 -20.8058 -20.8051 -20.8040 -20.8029
    -6.8027  -6.4333  -5.8946  -5.1426  -4.2865  -3.7853  -3.0825  -3.0177
     0.2248   0.5078   0.8593   1.3841   1.8197   1.9731   2.0674   2.3560
     2.7976   4.6661   4.9598   5.1025   5.1686   5.2374   5.7005   7.2304
     7.5749   7.9999   8.3773

          k =-0.5000 0.2887 0.0000 ( 16454 PWs)   bands (ev):

   -21.4111 -21.4100 -21.4065 -21.4056 -21.2863 -21.2833 -21.2826 -21.2780
   -21.2775 -21.2768 -21.2752 -21.2722 -21.2697 -21.2063 -21.1946 -21.1898
   -21.1639 -21.1565 -21.1426 -21.1402 -21.1261 -21.1094 -21.0916 -21.0883
   -21.0784 -21.0524 -21.0503 -20.9923 -20.9827 -20.9606 -20.8737 -20.8731
   -20.8570 -20.8564 -20.8303 -20.8301 -20.8058 -20.8051 -20.8040 -20.8029
    -6.8027  -6.4333  -5.8946  -5.1426  -4.2865  -3.7853  -3.0825  -3.0177
     0.2248   0.5078   0.8593   1.3841   1.8197   1.9731   2.0674   2.3560
     2.7976   4.6661   4.9598   5.1025   5.1686   5.2374   5.7005   7.2304
     7.5749   7.9998   8.3773

          k = 0.5000 0.5774 0.0000 ( 16437 PWs)   bands (ev):

   -21.4084 -21.4079 -21.4047 -21.4039 -21.2980 -21.2841 -21.2824 -21.2783
   -21.2778 -21.2768 -21.2764 -21.2735 -21.2669 -21.2011 -21.1983 -21.1802
   -21.1645 -21.1594 -21.1354 -21.1323 -21.1165 -21.1065 -21.0908 -21.0814
   -21.0799 -21.0712 -21.0508 -20.9934 -20.9817 -20.9484 -20.8887 -20.8875
   -20.8540 -20.8533 -20.8297 -20.8275 -20.8042 -20.8040 -20.7957 -20.7936
    -6.9563  -6.4790  -5.8379  -5.0333  -4.2223  -3.5158  -2.8940  -2.7026
    -0.1184  -0.0286   0.1028   0.4520   1.2496   2.1795   2.3906   2.9161
     2.9787   3.9020   4.1268   6.2181   6.2956   6.7218   7.5545   7.9671
     8.0670   8.3176   8.6485

          k =-0.7500 0.1443 0.0000 ( 16437 PWs)   bands (ev):

   -21.4084 -21.4079 -21.4047 -21.4039 -21.2980 -21.2841 -21.2824 -21.2783
   -21.2778 -21.2768 -21.2764 -21.2735 -21.2669 -21.2011 -21.1983 -21.1802
   -21.1645 -21.1594 -21.1354 -21.1323 -21.1165 -21.1065 -21.0908 -21.0814
   -21.0799 -21.0712 -21.0508 -20.9934 -20.9817 -20.9484 -20.8887 -20.8875
   -20.8540 -20.8533 -20.8297 -20.8275 -20.8042 -20.8040 -20.7957 -20.7936
    -6.9563  -6.4790  -5.8379  -5.0333  -4.2223  -3.5158  -2.8940  -2.7026
    -0.1184  -0.0286   0.1028   0.4520   1.2496   2.1795   2.3906   2.9161
     2.9787   3.9020   4.1268   6.2181   6.2956   6.7218   7.5545   7.9671
     8.0669   8.3176   8.6479

     the Fermi energy is     3.2451 ev

!    total energy              =   -1428.61025523 Ry
     estimated scf accuracy    <       0.00000074 Ry
     smearing contrib. (-TS)   =      -0.00041734 Ry
     internal energy E=F+TS    =   -1428.60983790 Ry

     The total energy is F=E-TS. E is the sum of the following terms:
     one-electron contribution =   -4283.85870263 Ry
     hartree contribution      =    2194.12180881 Ry
     xc contribution           =    -348.53008518 Ry
     ewald contribution        =    1009.65714110 Ry

     convergence has been achieved in  10 iterations

     Forces acting on atoms (cartesian axes, Ry/au):

     atom    1 type  1   force =    -0.00000018    0.00000157   -0.01036923
     atom    2 type  1   force =     0.00000583   -0.00000033   -0.01364591
     atom    3 type  1   force =    -0.00000108   -0.00000068   -0.00715590
     atom    4 type  1   force =    -0.00000174    0.00000203    0.01336565
     atom    5 type  1   force =     0.00000084   -0.00000261   -0.01393255
     atom    6 type  1   force =    -0.00000363   -0.00000035    0.00791403
     atom    7 type  1   force =     0.00000183   -0.00000066    0.01349506
     atom    8 type  1   force =    -0.00000188    0.00000103    0.01032885
     The non-local contrib.  to forces
     atom    1 type  1   force =     0.00000045    0.00000067    0.18623089
     atom    2 type  1   force =     0.00000683   -0.00000147    0.45172546
     atom    3 type  1   force =    -0.00000438   -0.00000294    0.08293091
     atom    4 type  1   force =    -0.00000468   -0.00000581   -0.03064237
     atom    5 type  1   force =     0.00000261    0.00000258    0.03003349
     atom    6 type  1   force =    -0.00000182   -0.00000051   -0.08209391
     atom    7 type  1   force =     0.00000127   -0.00000180   -0.45204089
     atom    8 type  1   force =    -0.00000065   -0.00000159   -0.18616655
     The ionic contribution  to forces
     atom    1 type  1   force =     0.00001151    0.00000074  -91.29535888
     atom    2 type  1   force =    -0.00000088   -0.00000016 -131.36279651
     atom    3 type  1   force =     0.00001099    0.00000070  -10.18608030
     atom    4 type  1   force =    -0.00001103   -0.00000070  -71.22334046
     atom    5 type  1   force =     0.00001103    0.00000070   71.22334045
     atom    6 type  1   force =    -0.00001099   -0.00000070   10.18608030
     atom    7 type  1   force =     0.00000088    0.00000016  131.36279651
     atom    8 type  1   force =    -0.00001151   -0.00000074   91.29535888
     The local contribution  to forces
     atom    1 type  1   force =    -0.00001432    0.00000313   91.09230542
     atom    2 type  1   force =    -0.00000579    0.00000184  130.89781297
     atom    3 type  1   force =    -0.00001278    0.00000101   10.09266930
     atom    4 type  1   force =     0.00000933    0.00000371   71.26768293
     atom    5 type  1   force =    -0.00001432    0.00000152  -71.26742304
     atom    6 type  1   force =     0.00001565    0.00000294  -10.09309852
     atom    7 type  1   force =    -0.00000214   -0.00000153 -130.89753109
     atom    8 type  1   force =     0.00000988    0.00000309  -91.09189669
     The core correction contribution to forces
     atom    1 type  1   force =     0.00000007   -0.00000017    0.00499205
     atom    2 type  1   force =    -0.00000059    0.00000003   -0.00149815
     atom    3 type  1   force =    -0.00000020   -0.00000012    0.00219828
     atom    4 type  1   force =    -0.00000008   -0.00000083   -0.00240365
     atom    5 type  1   force =     0.00000007    0.00000072    0.00243743
     atom    6 type  1   force =     0.00000039    0.00000017   -0.00225805
     atom    7 type  1   force =    -0.00000019   -0.00000000    0.00153536
     atom    8 type  1   force =    -0.00000005    0.00000005   -0.00495182
     The Hubbard contrib.    to forces
     atom    1 type  1   force =     0.00000000    0.00000000    0.00000000
     atom    2 type  1   force =     0.00000000    0.00000000    0.00000000
     atom    3 type  1   force =     0.00000000    0.00000000    0.00000000
     atom    4 type  1   force =     0.00000000    0.00000000    0.00000000
     atom    5 type  1   force =     0.00000000    0.00000000    0.00000000
     atom    6 type  1   force =     0.00000000    0.00000000    0.00000000
     atom    7 type  1   force =     0.00000000    0.00000000    0.00000000
     atom    8 type  1   force =     0.00000000    0.00000000    0.00000000
     The SCF correction term to forces
     atom    1 type  1   force =     0.00000201   -0.00000341    0.00142980
     atom    2 type  1   force =     0.00000617   -0.00000116    0.00107883
     atom    3 type  1   force =     0.00000520    0.00000007    0.00109442
     atom    4 type  1   force =     0.00000462    0.00000505    0.00203771
     atom    5 type  1   force =     0.00000137   -0.00000872   -0.00235237
     atom    6 type  1   force =    -0.00000695   -0.00000287   -0.00074727
     atom    7 type  1   force =     0.00000192    0.00000191   -0.00129632
     atom    8 type  1   force =     0.00000036   -0.00000038   -0.00204646

     Total force =     0.032698     Total SCF correction =     0.004530
     SCF correction compared to forces is large: reduce conv_thr to get better values

     BFGS Geometry Optimization
     Energy error            =      0.0E+00 Ry
     Gradient error          =      1.4E-02 Ry/Bohr

     number of scf cycles    =   1
     number of bfgs steps    =   0

     energy             new  =   -1428.6102552324 Ry

     new trust radius        =       0.0139325507 bohr
     new conv_thr            =       0.0000010000 Ry


ATOMIC_POSITIONS (angstrom)
Ge            1.0031825015        0.5791882674        7.4517968697
Ge            1.0031852787        0.5791872075        4.9927788957
Ge            3.0095468168        1.7375619017       10.7298759929
Ge            3.0095460592        1.7375632746        8.2834514996
Ge            5.0159126212        2.8959357001       14.0026686470
Ge            5.0159098469        2.8959368362       11.5569453334
Ge            1.0031851857        0.5791873204       17.2935614163
Ge            1.0031828221        0.5791881567       14.8346019012



     Writing config-only to output data dir ./out/ge.save/
     NEW-OLD atomic charge density approx. for the potential

     total cpu time spent up to now is      144.4 secs

     Self-consistent Calculation

     iteration #  1     ecut=    60.00 Ry     beta= 0.40
     Davidson diagonalization with overlap
     ethr =  1.00E-06,  avg # of iterations =  4.0

     total cpu time spent up to now is      164.4 secs

     total energy              =   -1428.61111383 Ry
     estimated scf accuracy    <       0.00016806 Ry

     iteration #  2     ecut=    60.00 Ry     beta= 0.40
     Davidson diagonalization with overlap
     ethr =  1.50E-07,  avg # of iterations =  4.0

     total cpu time spent up to now is      176.9 secs

     total energy              =   -1428.61103116 Ry
     estimated scf accuracy    <       0.00232981 Ry

     iteration #  3     ecut=    60.00 Ry     beta= 0.40
     Davidson diagonalization with overlap
     ethr =  1.50E-07,  avg # of iterations =  2.2

     total cpu time spent up to now is      187.8 secs

     total energy              =   -1428.61120132 Ry
     estimated scf accuracy    <       0.00001021 Ry

     iteration #  4     ecut=    60.00 Ry     beta= 0.40
     Davidson diagonalization with overlap
     ethr =  9.12E-09,  avg # of iterations =  2.9

     total cpu time spent up to now is      198.9 secs

     total energy              =   -1428.61120218 Ry
     estimated scf accuracy    <       0.00000481 Ry

     iteration #  5     ecut=    60.00 Ry     beta= 0.40
     Davidson diagonalization with overlap
     ethr =  4.29E-09,  avg # of iterations =  2.1

     total cpu time spent up to now is      209.6 secs

     total energy              =   -1428.61120085 Ry
     estimated scf accuracy    <       0.00004351 Ry

     iteration #  6     ecut=    60.00 Ry     beta= 0.40
     Davidson diagonalization with overlap
     ethr =  4.29E-09,  avg # of iterations =  2.0

     total cpu time spent up to now is      220.4 secs

     End of self-consistent calculation

          k = 0.0000 0.0000 0.0000 ( 16519 PWs)   bands (ev):

   -21.4175 -21.4175 -21.4156 -21.4156 -21.2876 -21.2876 -21.2829 -21.2827
   -21.2827 -21.2801 -21.2710 -21.2710 -21.2422 -21.2342 -21.2082 -21.2082
   -21.1635 -21.1635 -21.1510 -21.1510 -21.1068 -21.1068 -21.1051 -21.1051
   -21.0164 -21.0164 -21.0066 -20.9988 -20.9828 -20.9828 -20.8430 -20.8430
   -20.8420 -20.8420 -20.8337 -20.8297 -20.8011 -20.8011 -20.7983 -20.7983
    -8.7859  -8.2019  -7.4634  -5.0335  -4.7555  -2.5313  -0.6539   1.2783
     2.4836   2.4836   2.9310   2.9310   3.0910   3.4267   3.4267   4.0242
     4.3699   4.4286   5.8067   5.8067   6.0140   6.0140   6.3366   7.0266
     7.0584   7.0585   7.6151

          k = 0.0000 0.2887 0.0000 ( 16480 PWs)   bands (ev):

   -21.4177 -21.4162 -21.4142 -21.4121 -21.2881 -21.2863 -21.2860 -21.2843
   -21.2822 -21.2808 -21.2795 -21.2783 -21.2533 -21.2168 -21.1922 -21.1826
   -21.1713 -21.1571 -21.1497 -21.1419 -21.1066 -21.1029 -21.0869 -21.0819
   -21.0575 -21.0334 -21.0291 -20.9887 -20.9681 -20.9667 -20.8643 -20.8633
   -20.8469 -20.8453 -20.8208 -20.8192 -20.7973 -20.7968 -20.7955 -20.7952
    -8.1320  -7.5623  -6.8299  -4.7620  -4.4043  -2.7766  -1.5918  -0.7953
    -0.0117   0.9620   1.4980   2.0243   2.0285   2.6005   2.6618   3.5961
     4.0151   5.1167   5.3363   5.5500   5.5911   5.6360   6.7087   7.1018
     7.5203   8.0066   8.4217

          k = 0.0000-0.5774 0.0000 ( 16454 PWs)   bands (ev):

   -21.4181 -21.4164 -21.4135 -21.4120 -21.2882 -21.2866 -21.2844 -21.2833
   -21.2825 -21.2817 -21.2809 -21.2739 -21.2697 -21.2036 -21.1845 -21.1774
   -21.1565 -21.1497 -21.1366 -21.1284 -21.1161 -21.1027 -21.0806 -21.0778
   -21.0686 -21.0479 -21.0464 -20.9865 -20.9782 -20.9596 -20.8646 -20.8635
   -20.8483 -20.8473 -20.8220 -20.8211 -20.7984 -20.7966 -20.7962 -20.7938
    -6.8026  -6.4195  -5.8754  -5.1430  -4.2663  -3.7626  -3.0788  -3.0072
     0.2171   0.4932   0.8754   1.4160   1.8123   2.0050   2.0631   2.3513
     2.7823   4.6896   4.9576   5.1277   5.1637   5.2345   5.6923   7.2643
     7.5583   7.9907   8.3439

          k = 0.2500-0.7217 0.0000 ( 16437 PWs)   bands (ev):

   -21.4155 -21.4141 -21.4118 -21.4102 -21.2948 -21.2884 -21.2873 -21.2850
   -21.2836 -21.2818 -21.2805 -21.2757 -21.2671 -21.1899 -21.1853 -21.1760
   -21.1586 -21.1524 -21.1293 -21.1260 -21.1095 -21.0974 -21.0820 -21.0705
   -21.0694 -21.0633 -21.0459 -20.9873 -20.9764 -20.9481 -20.8790 -20.8775
   -20.8452 -20.8441 -20.8212 -20.8189 -20.7970 -20.7961 -20.7873 -20.7850
    -6.9541  -6.4628  -5.8193  -5.0376  -4.2055  -3.5064  -2.8853  -2.6851
    -0.0996  -0.0138   0.1173   0.4614   1.2462   2.1728   2.3879   2.9074
     2.9736   3.8989   4.1209   6.2054   6.2856   6.7097   7.5375   7.9734
     8.0855   8.3233   8.6646

          k =-0.2500-0.1443 0.0000 ( 16480 PWs)   bands (ev):

   -21.4177 -21.4162 -21.4142 -21.4121 -21.2881 -21.2863 -21.2860 -21.2843
   -21.2822 -21.2808 -21.2795 -21.2783 -21.2533 -21.2168 -21.1922 -21.1826
   -21.1713 -21.1571 -21.1497 -21.1419 -21.1066 -21.1029 -21.0869 -21.0819
   -21.0575 -21.0334 -21.0291 -20.9887 -20.9681 -20.9667 -20.8643 -20.8633
   -20.8469 -20.8453 -20.8208 -20.8192 -20.7973 -20.7968 -20.7955 -20.7952
    -8.1320  -7.5623  -6.8299  -4.7620  -4.4043  -2.7766  -1.5918  -0.7953
    -0.0117   0.9620   1.4980   2.0243   2.0285   2.6005   2.6618   3.5961
     4.0151   5.1168   5.3363   5.5500   5.5911   5.6360   6.7087   7.1018
     7.5203   8.0066   8.4217

          k = 0.2500-0.1443 0.0000 ( 16480 PWs)   bands (ev):

   -21.4177 -21.4162 -21.4142 -21.4121 -21.2881 -21.2863 -21.2860 -21.2843
   -21.2822 -21.2808 -21.2795 -21.2783 -21.2533 -21.2168 -21.1922 -21.1826
   -21.1713 -21.1571 -21.1497 -21.1419 -21.1066 -21.1029 -21.0869 -21.0819
   -21.0575 -21.0334 -21.0291 -20.9887 -20.9681 -20.9667 -20.8643 -20.8633
   -20.8469 -20.8453 -20.8208 -20.8192 -20.7973 -20.7968 -20.7955 -20.7952
    -8.1320  -7.5623  -6.8299  -4.7620  -4.4043  -2.7766  -1.5918  -0.7953
    -0.0117   0.9620   1.4980   2.0243   2.0285   2.6005   2.6618   3.5961
     4.0151   5.1167   5.3363   5.5500   5.5911   5.6360   6.7087   7.1018
     7.5203   8.0066   8.4217

          k = 0.5000 0.2887 0.0000 ( 16454 PWs)   bands (ev):

   -21.4181 -21.4164 -21.4135 -21.4120 -21.2882 -21.2866 -21.2844 -21.2833
   -21.2825 -21.2817 -21.2809 -21.2739 -21.2697 -21.2036 -21.1845 -21.1774
   -21.1565 -21.1497 -21.1366 -21.1284 -21.1161 -21.1027 -21.0806 -21.0778
   -21.0686 -21.0479 -21.0464 -20.9865 -20.9782 -20.9596 -20.8646 -20.8635
   -20.8483 -20.8473 -20.8220 -20.8211 -20.7984 -20.7966 -20.7962 -20.7938
    -6.8026  -6.4195  -5.8754  -5.1430  -4.2663  -3.7626  -3.0788  -3.0072
     0.2171   0.4932   0.8754   1.4160   1.8123   2.0050   2.0631   2.3513
     2.7823   4.6896   4.9576   5.1277   5.1637   5.2345   5.6923   7.2643
     7.5583   7.9907   8.3439

          k =-0.5000 0.2887 0.0000 ( 16454 PWs)   bands (ev):

   -21.4181 -21.4164 -21.4135 -21.4120 -21.2882 -21.2866 -21.2844 -21.2833
   -21.2825 -21.2817 -21.2809 -21.2739 -21.2697 -21.2036 -21.1845 -21.1774
   -21.1565 -21.1497 -21.1366 -21.1284 -21.1161 -21.1027 -21.0806 -21.0778
   -21.0686 -21.0479 -21.0464 -20.9865 -20.9782 -20.9596 -20.8646 -20.8635
   -20.8483 -20.8473 -20.8220 -20.8211 -20.7984 -20.7966 -20.7962 -20.7938
    -6.8026  -6.4195  -5.8754  -5.1430  -4.2663  -3.7626  -3.0787  -3.0072
     0.2171   0.4932   0.8754   1.4160   1.8123   2.0050   2.0631   2.3513
     2.7823   4.6896   4.9576   5.1277   5.1637   5.2345   5.6923   7.2643
     7.5583   7.9907   8.3439

          k = 0.5000 0.5774 0.0000 ( 16437 PWs)   bands (ev):

   -21.4155 -21.4141 -21.4118 -21.4102 -21.2948 -21.2884 -21.2873 -21.2850
   -21.2836 -21.2818 -21.2805 -21.2757 -21.2671 -21.1899 -21.1853 -21.1760
   -21.1586 -21.1524 -21.1293 -21.1260 -21.1095 -21.0974 -21.0820 -21.0705
   -21.0694 -21.0633 -21.0459 -20.9873 -20.9764 -20.9481 -20.8790 -20.8775
   -20.8452 -20.8441 -20.8212 -20.8189 -20.7970 -20.7961 -20.7873 -20.7850
    -6.9541  -6.4628  -5.8193  -5.0376  -4.2055  -3.5064  -2.8853  -2.6851
    -0.0996  -0.0138   0.1173   0.4614   1.2462   2.1728   2.3879   2.9074
     2.9736   3.8989   4.1209   6.2054   6.2856   6.7097   7.5375   7.9734
     8.0855   8.3232   8.6646

          k =-0.7500 0.1443 0.0000 ( 16437 PWs)   bands (ev):

   -21.4155 -21.4141 -21.4118 -21.4102 -21.2948 -21.2884 -21.2873 -21.2850
   -21.2836 -21.2818 -21.2805 -21.2757 -21.2671 -21.1899 -21.1853 -21.1760
   -21.1586 -21.1524 -21.1293 -21.1260 -21.1095 -21.0974 -21.0820 -21.0705
   -21.0694 -21.0633 -21.0459 -20.9873 -20.9764 -20.9481 -20.8790 -20.8775
   -20.8452 -20.8441 -20.8212 -20.8189 -20.7970 -20.7961 -20.7873 -20.7850
    -6.9541  -6.4628  -5.8193  -5.0376  -4.2055  -3.5064  -2.8853  -2.6851
    -0.0996  -0.0138   0.1173   0.4614   1.2462   2.1728   2.3879   2.9074
     2.9736   3.8989   4.1209   6.2054   6.2856   6.7097   7.5375   7.9734
     8.0855   8.3233   8.6645

     the Fermi energy is     3.2488 ev

!    total energy              =   -1428.61120329 Ry
     estimated scf accuracy    <       0.00000053 Ry
     smearing contrib. (-TS)   =      -0.00026498 Ry
     internal energy E=F+TS    =   -1428.61093831 Ry

     The total energy is F=E-TS. E is the sum of the following terms:
     one-electron contribution =   -4276.61657282 Ry
     hartree contribution      =    2190.53784679 Ry
     xc contribution           =    -348.52682112 Ry
     ewald contribution        =    1005.99460884 Ry

     convergence has been achieved in   6 iterations

     Forces acting on atoms (cartesian axes, Ry/au):

     atom    1 type  1   force =     0.00000015   -0.00000031   -0.00887026
     atom    2 type  1   force =     0.00000018    0.00000025   -0.01284006
     atom    3 type  1   force =    -0.00000112    0.00000106   -0.00357655
     atom    4 type  1   force =    -0.00000001    0.00000017    0.00893120
     atom    5 type  1   force =    -0.00000009    0.00000037   -0.00866813
     atom    6 type  1   force =     0.00000110   -0.00000119    0.00365903
     atom    7 type  1   force =    -0.00000038    0.00000024    0.01255857
     atom    8 type  1   force =     0.00000018   -0.00000058    0.00880621
     The non-local contrib.  to forces
     atom    1 type  1   force =     0.00000050    0.00000030    0.18605108
     atom    2 type  1   force =    -0.00000035   -0.00000048    0.45232105
     atom    3 type  1   force =    -0.00000071    0.00000135    0.08052162
     atom    4 type  1   force =    -0.00000045    0.00000086   -0.02756769
     atom    5 type  1   force =     0.00000025    0.00000070    0.02756898
     atom    6 type  1   force =     0.00000138   -0.00000214   -0.08020554
     atom    7 type  1   force =    -0.00000130    0.00000009   -0.45254289
     atom    8 type  1   force =    -0.00000087   -0.00000051   -0.18606551
     The ionic contribution  to forces
     atom    1 type  1   force =    -0.00001082    0.00000693  -91.45074656
     atom    2 type  1   force =     0.00000870   -0.00000319 -131.10420255
     atom    3 type  1   force =    -0.00000534   -0.00000193  -10.18712332
     atom    4 type  1   force =    -0.00000022    0.00000025  -71.20288267
     atom    5 type  1   force =     0.00000002    0.00002277   71.21044955
     atom    6 type  1   force =    -0.00000046    0.00000200   10.16877542
     atom    7 type  1   force =     0.00000744   -0.00000326  131.10758263
     atom    8 type  1   force =     0.00000067   -0.00002355   91.45814750
     The local contribution  to forces
     atom    1 type  1   force =     0.00001061   -0.00000511   91.24986164
     atom    2 type  1   force =    -0.00000907    0.00000276  130.64123739
     atom    3 type  1   force =     0.00000387    0.00000416   10.09997833
     atom    4 type  1   force =    -0.00000187    0.00000430   71.24030408
     atom    5 type  1   force =     0.00000127   -0.00002203  -71.24968578
     atom    6 type  1   force =     0.00000140   -0.00000087  -10.08475903
     atom    7 type  1   force =    -0.00000754    0.00000149 -130.64359149
     atom    8 type  1   force =     0.00000013    0.00002231  -91.25884647
     The core correction contribution to forces
     atom    1 type  1   force =    -0.00000002    0.00000016    0.00474928
     atom    2 type  1   force =    -0.00000003   -0.00000006   -0.00151159
     atom    3 type  1   force =     0.00000006    0.00000005    0.00210647
     atom    4 type  1   force =    -0.00000005    0.00000018   -0.00215416
     atom    5 type  1   force =     0.00000004    0.00000015    0.00214393
     atom    6 type  1   force =    -0.00000001    0.00000006   -0.00211278
     atom    7 type  1   force =    -0.00000002   -0.00000008    0.00151529
     atom    8 type  1   force =    -0.00000005    0.00000002   -0.00476270
     The Hubbard contrib.    to forces
     atom    1 type  1   force =     0.00000000    0.00000000    0.00000000
     atom    2 type  1   force =     0.00000000    0.00000000    0.00000000
     atom    3 type  1   force =     0.00000000    0.00000000    0.00000000
     atom    4 type  1   force =     0.00000000    0.00000000    0.00000000
     atom    5 type  1   force =     0.00000000    0.00000000    0.00000000
     atom    6 type  1   force =     0.00000000    0.00000000    0.00000000
     atom    7 type  1   force =     0.00000000    0.00000000    0.00000000
     atom    8 type  1   force =     0.00000000    0.00000000    0.00000000
     The SCF correction term to forces
     atom    1 type  1   force =    -0.00000025   -0.00000285    0.00127537
     atom    2 type  1   force =     0.00000079    0.00000097   -0.00062329
     atom    3 type  1   force =     0.00000088   -0.00000281    0.00100141
     atom    4 type  1   force =     0.00000244   -0.00000567    0.00129270
     atom    5 type  1   force =    -0.00000180   -0.00000148    0.00091625
     atom    6 type  1   force =    -0.00000134   -0.00000050    0.00202202
     atom    7 type  1   force =     0.00000092    0.00000175   -0.00034391
     atom    8 type  1   force =     0.00000015    0.00000090    0.00039445

     Total force =     0.025688     Total SCF correction =     0.003145
     SCF correction compared to forces is large: reduce conv_thr to get better values
     Energy error            =      9.5E-04 Ry
     Gradient error          =      1.3E-02 Ry/Bohr

     number of scf cycles    =   2
     number of bfgs steps    =   1

     energy             old  =   -1428.6102552324 Ry
     energy             new  =   -1428.6112032864 Ry

     CASE: energy            _new < energy            _old

     new trust radius        =       0.0153258058 bohr
     new conv_thr            =       0.0000000948 Ry


ATOMIC_POSITIONS (angstrom)
Ge            1.0031825749        0.5791881882        7.4461350961
Ge            1.0031857460        0.5791873263        4.9846688286
Ge            3.0095461156        1.7375624590       10.7274064635
Ge            3.0095459424        1.7375634954        8.2893357073
Ge            5.0159126256        2.8959357442       13.9968974836
Ge            5.0159102399        2.8959361397       11.5595090233
Ge            1.0031850838        0.5791874170       17.3015029961
Ge            1.0031828038        0.5791878949       14.8402249574



     Writing config-only to output data dir ./out/ge.save/
     NEW-OLD atomic charge density approx. for the potential

     total cpu time spent up to now is      225.4 secs

     Self-consistent Calculation

     iteration #  1     ecut=    60.00 Ry     beta= 0.40
     Davidson diagonalization with overlap
     ethr =  1.00E-06,  avg # of iterations =  4.0

     total cpu time spent up to now is      244.8 secs

     total energy              =   -1428.61183981 Ry
     estimated scf accuracy    <       0.00015401 Ry

     iteration #  2     ecut=    60.00 Ry     beta= 0.40
     Davidson diagonalization with overlap
     ethr =  1.38E-07,  avg # of iterations =  7.9

     total cpu time spent up to now is      258.7 secs

     total energy              =   -1428.61170554 Ry
     estimated scf accuracy    <       0.00358038 Ry

     iteration #  3     ecut=    60.00 Ry     beta= 0.40
     Davidson diagonalization with overlap
     ethr =  1.38E-07,  avg # of iterations =  3.6

     total cpu time spent up to now is      270.3 secs

     total energy              =   -1428.61191089 Ry
     estimated scf accuracy    <       0.00009896 Ry

     iteration #  4     ecut=    60.00 Ry     beta= 0.40
     Davidson diagonalization with overlap
     ethr =  8.84E-08,  avg # of iterations =  1.8

     total cpu time spent up to now is      280.8 secs

     total energy              =   -1428.61191885 Ry
     estimated scf accuracy    <       0.00004092 Ry

     iteration #  5     ecut=    60.00 Ry     beta= 0.40
     Davidson diagonalization with overlap
     ethr =  3.65E-08,  avg # of iterations =  2.0

     total cpu time spent up to now is      291.5 secs

     total energy              =   -1428.61192283 Ry
     estimated scf accuracy    <       0.00000317 Ry

     iteration #  6     ecut=    60.00 Ry     beta= 0.40
     Davidson diagonalization with overlap
     ethr =  2.83E-09,  avg # of iterations =  2.0

     total cpu time spent up to now is      302.4 secs

     total energy              =   -1428.61192318 Ry
     estimated scf accuracy    <       0.00000032 Ry

     iteration #  7     ecut=    60.00 Ry     beta= 0.40
     Davidson diagonalization with overlap
     ethr =  2.83E-10,  avg # of iterations =  2.1

     total cpu time spent up to now is      313.4 secs

     total energy              =   -1428.61192321 Ry
     estimated scf accuracy    <       0.00000013 Ry

     iteration #  8     ecut=    60.00 Ry     beta= 0.40
     Davidson diagonalization with overlap
     ethr =  1.18E-10,  avg # of iterations =  2.0

     total cpu time spent up to now is      324.3 secs

     End of self-consistent calculation

          k = 0.0000 0.0000 0.0000 ( 16519 PWs)   bands (ev):

   -21.4233 -21.4233 -21.4217 -21.4217 -21.2930 -21.2930 -21.2884 -21.2884
   -21.2872 -21.2841 -21.2649 -21.2649 -21.2378 -21.2307 -21.2013 -21.2013
   -21.1508 -21.1508 -21.1388 -21.1388 -21.0945 -21.0945 -21.0929 -21.0929
   -21.0099 -21.0099 -20.9941 -20.9875 -20.9766 -20.9766 -20.8307 -20.8307
   -20.8303 -20.8303 -20.8234 -20.8193 -20.7893 -20.7893 -20.7869 -20.7869
    -8.7759  -8.1777  -7.4398  -5.0395  -4.7568  -2.5553  -0.6722   1.2693
     2.4974   2.4975   2.9601   2.9601   3.0667   3.4551   3.4551   4.0536
     4.3782   4.4675   5.8052   5.8052   6.0159   6.0159   6.3490   7.0093
     7.0582   7.0584   7.6384

          k = 0.0000 0.2887 0.0000 ( 16480 PWs)   bands (ev):

   -21.4234 -21.4224 -21.4200 -21.4183 -21.2928 -21.2917 -21.2914 -21.2900
   -21.2846 -21.2838 -21.2772 -21.2719 -21.2487 -21.2112 -21.1840 -21.1748
   -21.1582 -21.1449 -21.1382 -21.1303 -21.0957 -21.0921 -21.0753 -21.0701
   -21.0471 -21.0255 -21.0198 -20.9785 -20.9624 -20.9588 -20.8520 -20.8516
   -20.8350 -20.8336 -20.8100 -20.8088 -20.7860 -20.7858 -20.7849 -20.7839
    -8.1231  -7.5393  -6.8072  -4.7682  -4.4038  -2.7902  -1.5866  -0.7762
     0.0009   0.9740   1.5136   2.0221   2.0547   2.6290   2.6501   3.5954
     4.0068   5.1153   5.3527   5.5458   5.6103   5.6334   6.7072   7.1001
     7.5205   7.9912   8.4237

          k = 0.0000-0.5774 0.0000 ( 16454 PWs)   bands (ev):

   -21.4237 -21.4227 -21.4192 -21.4182 -21.2929 -21.2914 -21.2896 -21.2877
   -21.2859 -21.2847 -21.2767 -21.2702 -21.2654 -21.1969 -21.1733 -21.1640
   -21.1475 -21.1412 -21.1270 -21.1148 -21.1039 -21.0939 -21.0681 -21.0659
   -21.0571 -21.0413 -21.0368 -20.9773 -20.9697 -20.9539 -20.8526 -20.8519
   -20.8365 -20.8360 -20.8108 -20.8102 -20.7884 -20.7871 -20.7850 -20.7826
    -6.7991  -6.4036  -5.8557  -5.1392  -4.2477  -3.7420  -3.0753  -2.9976
     0.2146   0.4841   0.8917   1.4471   1.8068   2.0339   2.0597   2.3468
     2.7704   4.7109   4.9559   5.1511   5.1594   5.2315   5.6854   7.2912
     7.5415   7.9795   8.3199

          k = 0.2500-0.7217 0.0000 ( 16437 PWs)   bands (ev):

   -21.4212 -21.4203 -21.4176 -21.4163 -21.2933 -21.2919 -21.2905 -21.2892
   -21.2880 -21.2852 -21.2839 -21.2724 -21.2630 -21.1784 -21.1714 -21.1676
   -21.1505 -21.1429 -21.1205 -21.1173 -21.0996 -21.0861 -21.0713 -21.0582
   -21.0574 -21.0527 -21.0370 -20.9778 -20.9674 -20.9428 -20.8664 -20.8653
   -20.8333 -20.8328 -20.8100 -20.8081 -20.7868 -20.7865 -20.7764 -20.7743
    -6.9487  -6.4450  -5.8005  -5.0371  -4.1896  -3.4980  -2.8770  -2.6691
    -0.0815   0.0014   0.1314   0.4735   1.2473   2.1681   2.3863   2.9001
     2.9686   3.8962   4.1154   6.1943   6.2766   6.7000   7.5204   7.9778
     8.1031   8.3268   8.6820

          k =-0.2500-0.1443 0.0000 ( 16480 PWs)   bands (ev):

   -21.4234 -21.4224 -21.4200 -21.4183 -21.2928 -21.2917 -21.2914 -21.2900
   -21.2846 -21.2838 -21.2772 -21.2719 -21.2487 -21.2112 -21.1840 -21.1748
   -21.1582 -21.1449 -21.1382 -21.1303 -21.0957 -21.0921 -21.0753 -21.0701
   -21.0471 -21.0255 -21.0198 -20.9785 -20.9624 -20.9588 -20.8520 -20.8516
   -20.8350 -20.8336 -20.8100 -20.8088 -20.7860 -20.7858 -20.7849 -20.7839
    -8.1231  -7.5393  -6.8072  -4.7682  -4.4038  -2.7902  -1.5866  -0.7762
     0.0009   0.9740   1.5136   2.0221   2.0547   2.6290   2.6501   3.5954
     4.0068   5.1153   5.3527   5.5458   5.6103   5.6334   6.7072   7.1001
     7.5205   7.9912   8.4237

          k = 0.2500-0.1443 0.0000 ( 16480 PWs)   bands (ev):

   -21.4234 -21.4224 -21.4200 -21.4183 -21.2928 -21.2917 -21.2914 -21.2900
   -21.2846 -21.2838 -21.2772 -21.2719 -21.2487 -21.2112 -21.1840 -21.1748
   -21.1582 -21.1449 -21.1382 -21.1303 -21.0957 -21.0921 -21.0753 -21.0701
   -21.0471 -21.0255 -21.0198 -20.9785 -20.9624 -20.9588 -20.8520 -20.8516
   -20.8350 -20.8336 -20.8100 -20.8088 -20.7860 -20.7858 -20.7849 -20.7839
    -8.1231  -7.5393  -6.8072  -4.7682  -4.4038  -2.7902  -1.5866  -0.7762
     0.0009   0.9740   1.5135   2.0221   2.0547   2.6290   2.6501   3.5954
     4.0068   5.1153   5.3527   5.5458   5.6103   5.6334   6.7072   7.1001
     7.5205   7.9912   8.4237

          k = 0.5000 0.2887 0.0000 ( 16454 PWs)   bands (ev):

   -21.4237 -21.4227 -21.4192 -21.4182 -21.2929 -21.2914 -21.2896 -21.2877
   -21.2859 -21.2847 -21.2767 -21.2702 -21.2654 -21.1969 -21.1733 -21.1640
   -21.1475 -21.1412 -21.1270 -21.1148 -21.1039 -21.0939 -21.0681 -21.0659
   -21.0571 -21.0413 -21.0368 -20.9773 -20.9697 -20.9539 -20.8526 -20.8519
   -20.8365 -20.8360 -20.8108 -20.8102 -20.7884 -20.7871 -20.7850 -20.7826
    -6.7991  -6.4036  -5.8557  -5.1392  -4.2477  -3.7421  -3.0753  -2.9976
     0.2146   0.4841   0.8917   1.4471   1.8068   2.0339   2.0597   2.3468
     2.7704   4.7109   4.9559   5.1511   5.1594   5.2315   5.6854   7.2912
     7.5415   7.9795   8.3199

          k =-0.5000 0.2887 0.0000 ( 16454 PWs)   bands (ev):

   -21.4237 -21.4227 -21.4192 -21.4182 -21.2929 -21.2914 -21.2896 -21.2877
   -21.2859 -21.2847 -21.2767 -21.2702 -21.2654 -21.1969 -21.1733 -21.1640
   -21.1475 -21.1412 -21.1270 -21.1148 -21.1039 -21.0939 -21.0681 -21.0659
   -21.0571 -21.0413 -21.0368 -20.9773 -20.9697 -20.9539 -20.8526 -20.8519
   -20.8365 -20.8360 -20.8108 -20.8102 -20.7884 -20.7871 -20.7850 -20.7826
    -6.7991  -6.4036  -5.8557  -5.1392  -4.2477  -3.7421  -3.0753  -2.9976
     0.2146   0.4841   0.8917   1.4471   1.8068   2.0339   2.0597   2.3468
     2.7704   4.7109   4.9559   5.1511   5.1594   5.2315   5.6854   7.2912
     7.5415   7.9795   8.3199

          k = 0.5000 0.5774 0.0000 ( 16437 PWs)   bands (ev):

   -21.4212 -21.4203 -21.4176 -21.4163 -21.2933 -21.2919 -21.2905 -21.2892
   -21.2880 -21.2852 -21.2839 -21.2724 -21.2630 -21.1784 -21.1714 -21.1676
   -21.1505 -21.1429 -21.1205 -21.1173 -21.0996 -21.0861 -21.0713 -21.0582
   -21.0574 -21.0527 -21.0370 -20.9778 -20.9674 -20.9428 -20.8664 -20.8653
   -20.8333 -20.8328 -20.8100 -20.8081 -20.7868 -20.7865 -20.7764 -20.7743
    -6.9487  -6.4450  -5.8005  -5.0371  -4.1896  -3.4980  -2.8770  -2.6690
    -0.0815   0.0014   0.1315   0.4735   1.2473   2.1681   2.3863   2.9001
     2.9686   3.8962   4.1154   6.1943   6.2766   6.6999   7.5204   7.9778
     8.1031   8.3268   8.6819

          k =-0.7500 0.1443 0.0000 ( 16437 PWs)   bands (ev):

   -21.4212 -21.4203 -21.4176 -21.4163 -21.2933 -21.2919 -21.2905 -21.2892
   -21.2880 -21.2852 -21.2839 -21.2724 -21.2630 -21.1784 -21.1714 -21.1676
   -21.1505 -21.1429 -21.1205 -21.1173 -21.0996 -21.0861 -21.0713 -21.0582
   -21.0574 -21.0527 -21.0370 -20.9778 -20.9674 -20.9428 -20.8664 -20.8653
   -20.8333 -20.8328 -20.8100 -20.8081 -20.7868 -20.7865 -20.7764 -20.7743
    -6.9487  -6.4450  -5.8005  -5.0371  -4.1896  -3.4980  -2.8770  -2.6690
    -0.0815   0.0014   0.1314   0.4735   1.2473   2.1681   2.3863   2.9001
     2.9686   3.8962   4.1154   6.1943   6.2766   6.6999   7.5204   7.9778
     8.1031   8.3268   8.6820

     the Fermi energy is     3.2540 ev

!    total energy              =   -1428.61192323 Ry
     estimated scf accuracy    <       0.00000003 Ry
     smearing contrib. (-TS)   =      -0.00017141 Ry
     internal energy E=F+TS    =   -1428.61175182 Ry

     The total energy is F=E-TS. E is the sum of the following terms:
     one-electron contribution =   -4267.76893565 Ry
     hartree contribution      =    2186.13716672 Ry
     xc contribution           =    -348.52165627 Ry
     ewald contribution        =    1001.54167339 Ry

     convergence has been achieved in   8 iterations

     Forces acting on atoms (cartesian axes, Ry/au):

     atom    1 type  1   force =    -0.00000009    0.00000014   -0.00760097
     atom    2 type  1   force =     0.00000004    0.00000005   -0.01179700
     atom    3 type  1   force =     0.00000007   -0.00000025   -0.00079248
     atom    4 type  1   force =     0.00000012   -0.00000018    0.00479678
     atom    5 type  1   force =    -0.00000042    0.00000074   -0.00459306
     atom    6 type  1   force =    -0.00000008    0.00000028    0.00050377
     atom    7 type  1   force =    -0.00000008    0.00000005    0.01186142
     atom    8 type  1   force =     0.00000044   -0.00000082    0.00762154
     The non-local contrib.  to forces
     atom    1 type  1   force =     0.00000059   -0.00000015    0.18555258
     atom    2 type  1   force =    -0.00000036   -0.00000000    0.45187611
     atom    3 type  1   force =     0.00000036    0.00000021    0.07797121
     atom    4 type  1   force =    -0.00000003   -0.00000015   -0.02517927
     atom    5 type  1   force =    -0.00000013    0.00000011    0.02516961
     atom    6 type  1   force =    -0.00000003   -0.00000025   -0.07791569
     atom    7 type  1   force =    -0.00000036    0.00000011   -0.45196159
     atom    8 type  1   force =     0.00000004   -0.00000024   -0.18561244
     The ionic contribution  to forces
     atom    1 type  1   force =    -0.00001483    0.00001032  -91.57514170
     atom    2 type  1   force =     0.00000983   -0.00000247 -130.80876294
     atom    3 type  1   force =     0.00000775   -0.00001794  -10.17074452
     atom    4 type  1   force =     0.00000466   -0.00000513  -71.15438987
     atom    5 type  1   force =    -0.00000171    0.00002126   71.16215311
     atom    6 type  1   force =    -0.00001415    0.00001658   10.14920895
     atom    7 type  1   force =     0.00000717   -0.00000203  130.81882257
     atom    8 type  1   force =     0.00000128   -0.00002059   91.57885440
     The local contribution  to forces
     atom    1 type  1   force =     0.00001415   -0.00000932   91.37702258
     atom    2 type  1   force =    -0.00000943    0.00000258  130.34623728
     atom    3 type  1   force =    -0.00000807    0.00001790   10.09047732
     atom    4 type  1   force =    -0.00000486    0.00000555   71.18599389
     atom    5 type  1   force =     0.00000095   -0.00002087  -71.19400677
     atom    6 type  1   force =     0.00001400   -0.00001616  -10.06847117
     atom    7 type  1   force =    -0.00000681    0.00000189 -130.35654336
     atom    8 type  1   force =    -0.00000062    0.00001993  -91.38154197
     The core correction contribution to forces
     atom    1 type  1   force =     0.00000001    0.00000001    0.00453309
     atom    2 type  1   force =    -0.00000000   -0.00000000   -0.00154517
     atom    3 type  1   force =     0.00000001    0.00000001    0.00194636
     atom    4 type  1   force =    -0.00000002    0.00000001   -0.00187073
     atom    5 type  1   force =     0.00000001   -0.00000002    0.00186335
     atom    6 type  1   force =    -0.00000002   -0.00000000   -0.00193452
     atom    7 type  1   force =     0.00000001   -0.00000002    0.00153788
     atom    8 type  1   force =    -0.00000003    0.00000003   -0.00454368
     The Hubbard contrib.    to forces
     atom    1 type  1   force =     0.00000000    0.00000000    0.00000000
     atom    2 type  1   force =     0.00000000    0.00000000    0.00000000
     atom    3 type  1   force =     0.00000000    0.00000000    0.00000000
     atom    4 type  1   force =     0.00000000    0.00000000    0.00000000
     atom    5 type  1   force =     0.00000000    0.00000000    0.00000000
     atom    6 type  1   force =     0.00000000    0.00000000    0.00000000
     atom    7 type  1   force =     0.00000000    0.00000000    0.00000000
     atom    8 type  1   force =     0.00000000    0.00000000    0.00000000
     The SCF correction term to forces
     atom    1 type  1   force =     0.00000003   -0.00000078    0.00044627
     atom    2 type  1   force =     0.00000003   -0.00000013    0.00041150
     atom    3 type  1   force =     0.00000004   -0.00000050   -0.00042907
     atom    4 type  1   force =     0.00000041   -0.00000052    0.00025653
     atom    5 type  1   force =     0.00000050    0.00000019    0.00024143
     atom    6 type  1   force =     0.00000016    0.00000004   -0.00037001
     atom    7 type  1   force =    -0.00000005    0.00000003    0.00001970
     atom    8 type  1   force =    -0.00000018   -0.00000001    0.00047901

     Total force =     0.020993     Total SCF correction =     0.001021
     Energy error            =      7.2E-04 Ry
     Gradient error          =      1.2E-02 Ry/Bohr

     number of scf cycles    =   3
     number of bfgs steps    =   2

     energy             old  =   -1428.6112032864 Ry
     energy             new  =   -1428.6119232263 Ry

     CASE: energy            _new < energy            _old

     new trust radius        =       0.0229887086 bohr
     new conv_thr            =       0.0000000720 Ry


ATOMIC_POSITIONS (angstrom)
Ge            1.0031824830        0.5791885241        7.4380143158
Ge            1.0031867157        0.5791873248        4.9725123064
Ge            3.0095459259        1.7375622232       10.7254278028
Ge            3.0095457558        1.7375636860        8.2957539195
Ge            5.0159124310        2.8959359247       13.9905640924
Ge            5.0159096678        2.8959362301       11.5613886913
Ge            1.0031852910        0.5791873676       17.3136680968
Ge            1.0031828620        0.5791873841       14.8483513307



     Writing config-only to output data dir ./out/ge.save/
     NEW-OLD atomic charge density approx. for the potential

     total cpu time spent up to now is      329.3 secs

     Self-consistent Calculation

     iteration #  1     ecut=    60.00 Ry     beta= 0.40
     Davidson diagonalization with overlap
     ethr =  1.00E-06,  avg # of iterations =  5.0

     total cpu time spent up to now is      350.1 secs

     total energy              =   -1428.61262733 Ry
     estimated scf accuracy    <       0.00014458 Ry

     iteration #  2     ecut=    60.00 Ry     beta= 0.40
     Davidson diagonalization with overlap
     ethr =  1.29E-07,  avg # of iterations =  3.3

     total cpu time spent up to now is      362.6 secs

     total energy              =   -1428.61258514 Ry
     estimated scf accuracy    <       0.00119600 Ry

     iteration #  3     ecut=    60.00 Ry     beta= 0.40
     Davidson diagonalization with overlap
     ethr =  1.29E-07,  avg # of iterations =  2.4

     total cpu time spent up to now is      373.3 secs

     total energy              =   -1428.61268574 Ry
     estimated scf accuracy    <       0.00003694 Ry

     iteration #  4     ecut=    60.00 Ry     beta= 0.40
     Davidson diagonalization with overlap
     ethr =  3.30E-08,  avg # of iterations =  2.0

     total cpu time spent up to now is      384.1 secs

     total energy              =   -1428.61268950 Ry
     estimated scf accuracy    <       0.00000783 Ry

     iteration #  5     ecut=    60.00 Ry     beta= 0.40
     Davidson diagonalization with overlap
     ethr =  6.99E-09,  avg # of iterations =  2.1

     total cpu time spent up to now is      394.8 secs

     total energy              =   -1428.61268721 Ry
     estimated scf accuracy    <       0.00007004 Ry

     iteration #  6     ecut=    60.00 Ry     beta= 0.40
     Davidson diagonalization with overlap
     ethr =  6.99E-09,  avg # of iterations =  2.0

     total cpu time spent up to now is      405.3 secs

     total energy              =   -1428.61269142 Ry
     estimated scf accuracy    <       0.00000103 Ry

     iteration #  7     ecut=    60.00 Ry     beta= 0.40
     Davidson diagonalization with overlap
     ethr =  9.22E-10,  avg # of iterations =  2.7

     total cpu time spent up to now is      416.2 secs

     total energy              =   -1428.61269151 Ry
     estimated scf accuracy    <       0.00000047 Ry

     iteration #  8     ecut=    60.00 Ry     beta= 0.40
     Davidson diagonalization with overlap
     ethr =  4.23E-10,  avg # of iterations =  2.0

     total cpu time spent up to now is      426.7 secs

     End of self-consistent calculation

          k = 0.0000 0.0000 0.0000 ( 16519 PWs)   bands (ev):

   -21.4312 -21.4312 -21.4298 -21.4298 -21.3006 -21.3006 -21.2966 -21.2966
   -21.2934 -21.2899 -21.2571 -21.2571 -21.2305 -21.2240 -21.1924 -21.1924
   -21.1326 -21.1326 -21.1213 -21.1213 -21.0767 -21.0767 -21.0753 -21.0753
   -21.0010 -21.0010 -20.9778 -20.9723 -20.9683 -20.9683 -20.8139 -20.8139
   -20.8135 -20.8135 -20.8090 -20.8048 -20.7730 -20.7730 -20.7708 -20.7708
    -8.7608  -8.1428  -7.4099  -5.0438  -4.7576  -2.5800  -0.6931   1.2584
     2.5160   2.5160   3.0003   3.0003   3.0396   3.4906   3.4906   4.0887
     4.3868   4.5189   5.8060   5.8060   6.0191   6.0191   6.3601   6.9856
     7.0588   7.0588   7.6561

          k = 0.0000 0.2887 0.0000 ( 16480 PWs)   bands (ev):

   -21.4313 -21.4306 -21.4279 -21.4264 -21.3003 -21.2996 -21.2991 -21.2980
   -21.2902 -21.2895 -21.2701 -21.2638 -21.2414 -21.2028 -21.1732 -21.1644
   -21.1395 -21.1275 -21.1214 -21.1133 -21.0802 -21.0769 -21.0586 -21.0529
   -21.0330 -21.0142 -21.0074 -20.9646 -20.9545 -20.9478 -20.8353 -20.8351
   -20.8185 -20.8170 -20.7950 -20.7940 -20.7710 -20.7699 -20.7697 -20.7680
    -8.1092  -7.5059  -6.7783  -4.7721  -4.4021  -2.8038  -1.5781  -0.7530
     0.0185   0.9922   1.5341   2.0155   2.0964   2.6383   2.6642   3.5952
     3.9974   5.1120   5.3746   5.5418   5.6308   5.6360   6.7019   7.0950
     7.5206   7.9767   8.4245

          k = 0.0000-0.5774 0.0000 ( 16454 PWs)   bands (ev):

   -21.4316 -21.4309 -21.4271 -21.4264 -21.3000 -21.2993 -21.2970 -21.2962
   -21.2912 -21.2902 -21.2683 -21.2636 -21.2584 -21.1882 -21.1587 -21.1451
   -21.1352 -21.1291 -21.1128 -21.0954 -21.0857 -21.0816 -21.0505 -21.0493
   -21.0406 -21.0323 -21.0227 -20.9646 -20.9579 -20.9459 -20.8361 -20.8353
   -20.8203 -20.8201 -20.7955 -20.7948 -20.7744 -20.7735 -20.7692 -20.7667
    -6.7913  -6.3791  -5.8285  -5.1299  -4.2238  -3.7176  -3.0702  -2.9845
     0.2159   0.4775   0.9131   1.4898   1.8013   2.0565   2.0694   2.3414
     2.7572   4.7377   4.9533   5.1551   5.1824   5.2281   5.6772   7.3196
     7.5188   7.9616   8.2960

          k = 0.2500-0.7217 0.0000 ( 16437 PWs)   bands (ev):

   -21.4292 -21.4284 -21.4255 -21.4244 -21.3007 -21.2993 -21.2986 -21.2967
   -21.2909 -21.2899 -21.2787 -21.2659 -21.2562 -21.1657 -21.1538 -21.1523
   -21.1391 -21.1290 -21.1082 -21.1049 -21.0858 -21.0699 -21.0562 -21.0410
   -21.0405 -21.0372 -21.0237 -20.9648 -20.9550 -20.9353 -20.8492 -20.8482
   -20.8171 -20.8169 -20.7946 -20.7930 -20.7730 -20.7727 -20.7610 -20.7590
    -6.9388  -6.4179  -5.7751  -5.0316  -4.1687  -3.4884  -2.8653  -2.6486
    -0.0582   0.0233   0.1504   0.4929   1.2532   2.1640   2.3853   2.8919
     2.9624   3.8935   4.1090   6.1809   6.2647   6.6880   7.4969   7.9802
     8.1259   8.3302   8.7007

          k =-0.2500-0.1443 0.0000 ( 16480 PWs)   bands (ev):

   -21.4313 -21.4306 -21.4279 -21.4264 -21.3003 -21.2996 -21.2991 -21.2980
   -21.2902 -21.2895 -21.2701 -21.2638 -21.2414 -21.2028 -21.1732 -21.1644
   -21.1395 -21.1275 -21.1214 -21.1133 -21.0802 -21.0769 -21.0586 -21.0529
   -21.0330 -21.0142 -21.0074 -20.9646 -20.9545 -20.9478 -20.8353 -20.8351
   -20.8185 -20.8170 -20.7950 -20.7940 -20.7710 -20.7699 -20.7697 -20.7680
    -8.1092  -7.5059  -6.7783  -4.7721  -4.4021  -2.8038  -1.5781  -0.7530
     0.0185   0.9922   1.5341   2.0155   2.0964   2.6383   2.6642   3.5952
     3.9974   5.1120   5.3746   5.5418   5.6308   5.6360   6.7019   7.0950
     7.5206   7.9767   8.4245

          k = 0.2500-0.1443 0.0000 ( 16480 PWs)   bands (ev):

   -21.4313 -21.4306 -21.4279 -21.4264 -21.3003 -21.2996 -21.2991 -21.2980
   -21.2902 -21.2895 -21.2701 -21.2638 -21.2414 -21.2028 -21.1732 -21.1644
   -21.1395 -21.1275 -21.1214 -21.1133 -21.0802 -21.0769 -21.0586 -21.0529
   -21.0330 -21.0142 -21.0074 -20.9646 -20.9545 -20.9478 -20.8353 -20.8351
   -20.8185 -20.8170 -20.7950 -20.7940 -20.7710 -20.7699 -20.7697 -20.7680
    -8.1092  -7.5059  -6.7783  -4.7721  -4.4021  -2.8038  -1.5781  -0.7530
     0.0185   0.9922   1.5341   2.0155   2.0964   2.6383   2.6642   3.5952
     3.9974   5.1120   5.3746   5.5418   5.6308   5.6360   6.7019   7.0950
     7.5206   7.9767   8.4245

          k = 0.5000 0.2887 0.0000 ( 16454 PWs)   bands (ev):

   -21.4316 -21.4309 -21.4271 -21.4264 -21.3000 -21.2993 -21.2970 -21.2962
   -21.2912 -21.2902 -21.2683 -21.2636 -21.2584 -21.1882 -21.1587 -21.1451
   -21.1352 -21.1291 -21.1128 -21.0954 -21.0857 -21.0816 -21.0505 -21.0493
   -21.0406 -21.0323 -21.0227 -20.9646 -20.9579 -20.9459 -20.8361 -20.8353
   -20.8203 -20.8201 -20.7955 -20.7948 -20.7744 -20.7735 -20.7692 -20.7667
    -6.7913  -6.3791  -5.8285  -5.1299  -4.2238  -3.7176  -3.0702  -2.9845
     0.2159   0.4775   0.9131   1.4898   1.8013   2.0565   2.0694   2.3414
     2.7572   4.7377   4.9533   5.1551   5.1824   5.2281   5.6772   7.3196
     7.5188   7.9616   8.2960

          k =-0.5000 0.2887 0.0000 ( 16454 PWs)   bands (ev):

   -21.4316 -21.4309 -21.4271 -21.4264 -21.3000 -21.2993 -21.2970 -21.2962
   -21.2912 -21.2902 -21.2683 -21.2636 -21.2584 -21.1882 -21.1587 -21.1451
   -21.1352 -21.1291 -21.1128 -21.0954 -21.0857 -21.0816 -21.0505 -21.0493
   -21.0406 -21.0323 -21.0227 -20.9646 -20.9579 -20.9459 -20.8361 -20.8353
   -20.8203 -20.8201 -20.7955 -20.7948 -20.7744 -20.7735 -20.7692 -20.7667
    -6.7913  -6.3791  -5.8285  -5.1299  -4.2238  -3.7176  -3.0702  -2.9845
     0.2159   0.4775   0.9131   1.4898   1.8013   2.0565   2.0694   2.3414
     2.7572   4.7377   4.9533   5.1551   5.1824   5.2281   5.6772   7.3196
     7.5188   7.9616   8.2960

          k = 0.5000 0.5774 0.0000 ( 16437 PWs)   bands (ev):

   -21.4292 -21.4284 -21.4255 -21.4244 -21.3007 -21.2993 -21.2986 -21.2967
   -21.2909 -21.2899 -21.2787 -21.2659 -21.2562 -21.1657 -21.1538 -21.1523
   -21.1391 -21.1290 -21.1082 -21.1049 -21.0858 -21.0699 -21.0562 -21.0410
   -21.0405 -21.0372 -21.0237 -20.9648 -20.9550 -20.9353 -20.8492 -20.8482
   -20.8171 -20.8169 -20.7946 -20.7930 -20.7730 -20.7727 -20.7610 -20.7590
    -6.9388  -6.4180  -5.7751  -5.0316  -4.1687  -3.4884  -2.8653  -2.6486
    -0.0582   0.0233   0.1504   0.4929   1.2532   2.1640   2.3853   2.8919
     2.9624   3.8935   4.1090   6.1809   6.2647   6.6880   7.4969   7.9802
     8.1259   8.3302   8.7006

          k =-0.7500 0.1443 0.0000 ( 16437 PWs)   bands (ev):

   -21.4292 -21.4284 -21.4255 -21.4244 -21.3007 -21.2993 -21.2986 -21.2967
   -21.2909 -21.2899 -21.2787 -21.2659 -21.2562 -21.1657 -21.1538 -21.1523
   -21.1391 -21.1290 -21.1082 -21.1049 -21.0858 -21.0699 -21.0562 -21.0410
   -21.0405 -21.0372 -21.0237 -20.9648 -20.9550 -20.9353 -20.8492 -20.8482
   -20.8171 -20.8169 -20.7946 -20.7930 -20.7730 -20.7727 -20.7610 -20.7590
    -6.9388  -6.4179  -5.7751  -5.0316  -4.1687  -3.4884  -2.8653  -2.6486
    -0.0582   0.0233   0.1504   0.4929   1.2532   2.1640   2.3853   2.8919
     2.9624   3.8935   4.1090   6.1809   6.2647   6.6880   7.4969   7.9802
     8.1259   8.3302   8.7007

     the Fermi energy is     3.2650 ev

!    total energy              =   -1428.61269159 Ry
     estimated scf accuracy    <       0.00000002 Ry
     smearing contrib. (-TS)   =      -0.00010584 Ry
     internal energy E=F+TS    =   -1428.61258574 Ry

     The total energy is F=E-TS. E is the sum of the following terms:
     one-electron contribution =   -4253.50113939 Ry
     hartree contribution      =    2179.03731804 Ry
     xc contribution           =    -348.51422116 Ry
     ewald contribution        =     994.36545677 Ry

     convergence has been achieved in   8 iterations

     Forces acting on atoms (cartesian axes, Ry/au):

     atom    1 type  1   force =    -0.00000001    0.00000016   -0.00620802
     atom    2 type  1   force =    -0.00000026    0.00000002   -0.01024510
     atom    3 type  1   force =    -0.00000036   -0.00000026    0.00219252
     atom    4 type  1   force =     0.00000038   -0.00000013   -0.00015869
     atom    5 type  1   force =    -0.00000042    0.00000006    0.00033522
     atom    6 type  1   force =     0.00000028    0.00000043   -0.00247631
     atom    7 type  1   force =    -0.00000005    0.00000008    0.01028190
     atom    8 type  1   force =     0.00000042   -0.00000037    0.00627847
     The non-local contrib.  to forces
     atom    1 type  1   force =     0.00000047   -0.00000026    0.18476537
     atom    2 type  1   force =    -0.00000075    0.00000020    0.45101020
     atom    3 type  1   force =     0.00000003    0.00000018    0.07506085
     atom    4 type  1   force =     0.00000042   -0.00000015   -0.02253731
     atom    5 type  1   force =    -0.00000015   -0.00000014    0.02253715
     atom    6 type  1   force =     0.00000034    0.00000021   -0.07511056
     atom    7 type  1   force =    -0.00000025    0.00000002   -0.45106312
     atom    8 type  1   force =    -0.00000000    0.00000004   -0.18472598
     The ionic contribution  to forces
     atom    1 type  1   force =    -0.00001959    0.00000925  -91.69975487
     atom    2 type  1   force =     0.00001302   -0.00000355 -130.36164316
     atom    3 type  1   force =     0.00000274   -0.00001487  -10.13634754
     atom    4 type  1   force =     0.00000602   -0.00000162  -71.04801170
     atom    5 type  1   force =     0.00000333    0.00001209   71.05377442
     atom    6 type  1   force =    -0.00001021    0.00001176   10.11936879
     atom    7 type  1   force =     0.00000750   -0.00000036  130.37132194
     atom    8 type  1   force =    -0.00000282   -0.00001269   91.70129213
     The local contribution  to forces
     atom    1 type  1   force =     0.00001884   -0.00000840   91.50435075
     atom    2 type  1   force =    -0.00001216    0.00000327  129.90158620
     atom    3 type  1   force =    -0.00000283    0.00001399   10.06178205
     atom    4 type  1   force =    -0.00000630    0.00000220   71.07184122
     atom    5 type  1   force =    -0.00000384   -0.00001206  -71.07782289
     atom    6 type  1   force =     0.00001016   -0.00001169  -10.04486912
     atom    7 type  1   force =    -0.00000720    0.00000026 -129.91110039
     atom    8 type  1   force =     0.00000334    0.00001237  -91.50646406
     The core correction contribution to forces
     atom    1 type  1   force =    -0.00000005    0.00000000    0.00422173
     atom    2 type  1   force =     0.00000005   -0.00000001   -0.00158770
     atom    3 type  1   force =     0.00000003   -0.00000000    0.00179503
     atom    4 type  1   force =    -0.00000004    0.00000002   -0.00151936
     atom    5 type  1   force =     0.00000003    0.00000003    0.00151288
     atom    6 type  1   force =    -0.00000005   -0.00000002   -0.00178613
     atom    7 type  1   force =     0.00000002   -0.00000001    0.00158451
     atom    8 type  1   force =    -0.00000004    0.00000003   -0.00423836
     The Hubbard contrib.    to forces
     atom    1 type  1   force =     0.00000000    0.00000000    0.00000000
     atom    2 type  1   force =     0.00000000    0.00000000    0.00000000
     atom    3 type  1   force =     0.00000000    0.00000000    0.00000000
     atom    4 type  1   force =     0.00000000    0.00000000    0.00000000
     atom    5 type  1   force =     0.00000000    0.00000000    0.00000000
     atom    6 type  1   force =     0.00000000    0.00000000    0.00000000
     atom    7 type  1   force =     0.00000000    0.00000000    0.00000000
     atom    8 type  1   force =     0.00000000    0.00000000    0.00000000
     The SCF correction term to forces
     atom    1 type  1   force =     0.00000036   -0.00000043    0.00022166
     atom    2 type  1   force =    -0.00000036    0.00000010    0.00040203
     atom    3 type  1   force =    -0.00000028    0.00000044   -0.00008520
     atom    4 type  1   force =     0.00000033   -0.00000059    0.00008113
     atom    5 type  1   force =     0.00000027    0.00000013    0.00034633
     atom    6 type  1   force =     0.00000009    0.00000015   -0.00006662
     atom    7 type  1   force =    -0.00000007    0.00000015   -0.00044836
     atom    8 type  1   force =    -0.00000001   -0.00000013    0.00042740

     Total force =     0.017312     Total SCF correction =     0.000856
     Energy error            =      7.7E-04 Ry
     Gradient error          =      1.0E-02 Ry/Bohr

     number of scf cycles    =   4
     number of bfgs steps    =   3

     energy             old  =   -1428.6119232263 Ry
     energy             new  =   -1428.6126915852 Ry

     CASE: energy            _new < energy            _old

     new trust radius        =       0.0344830630 bohr
     new conv_thr            =       0.0000000768 Ry


ATOMIC_POSITIONS (angstrom)
Ge            1.0031824041        0.5791891706        7.4260415947
Ge            1.0031883591        0.5791872792        4.9542646554
Ge            3.0095451779        1.7375618183       10.7244704765
Ge            3.0095455787        1.7375641725        8.3022449921
Ge            5.0159121949        2.8959354267       13.9841394833
Ge            5.0159088628        2.8959364573       11.5622557750
Ge            1.0031857564        0.5791872684       17.3318910107
Ge            1.0031827983        0.5791870716       14.8603725680



     Writing config-only to output data dir ./out/ge.save/
     NEW-OLD atomic charge density approx. for the potential

     negative rho (up, down):  1.198E-08 0.000E+00

     total cpu time spent up to now is      431.6 secs

     Self-consistent Calculation

     iteration #  1     ecut=    60.00 Ry     beta= 0.40
     Davidson diagonalization with overlap
     ethr =  1.00E-06,  avg # of iterations =  7.5

     total cpu time spent up to now is      454.4 secs

     total energy              =   -1428.61337369 Ry
     estimated scf accuracy    <       0.00026582 Ry

     iteration #  2     ecut=    60.00 Ry     beta= 0.40
     Davidson diagonalization with overlap
     ethr =  2.37E-07,  avg # of iterations =  2.7

     total cpu time spent up to now is      466.7 secs

     total energy              =   -1428.61329197 Ry
     estimated scf accuracy    <       0.00201702 Ry

     iteration #  3     ecut=    60.00 Ry     beta= 0.40
     Davidson diagonalization with overlap
     ethr =  2.37E-07,  avg # of iterations =  2.1

     total cpu time spent up to now is      477.5 secs

     total energy              =   -1428.61346514 Ry
     estimated scf accuracy    <       0.00007646 Ry

     iteration #  4     ecut=    60.00 Ry     beta= 0.40
     Davidson diagonalization with overlap
     ethr =  6.83E-08,  avg # of iterations =  2.0

     total cpu time spent up to now is      488.1 secs

     total energy              =   -1428.61346466 Ry
     estimated scf accuracy    <       0.00007969 Ry

     iteration #  5     ecut=    60.00 Ry     beta= 0.40
     Davidson diagonalization with overlap
     ethr =  6.83E-08,  avg # of iterations =  1.7

     total cpu time spent up to now is      498.6 secs

     total energy              =   -1428.61347118 Ry
     estimated scf accuracy    <       0.00010705 Ry

     iteration #  6     ecut=    60.00 Ry     beta= 0.40
     Davidson diagonalization with overlap
     ethr =  6.83E-08,  avg # of iterations =  1.0

     total cpu time spent up to now is      508.7 secs

     total energy              =   -1428.61347751 Ry
     estimated scf accuracy    <       0.00000089 Ry

     iteration #  7     ecut=    60.00 Ry     beta= 0.40
     Davidson diagonalization with overlap
     ethr =  7.99E-10,  avg # of iterations =  4.1

     total cpu time spent up to now is      520.0 secs

     total energy              =   -1428.61347759 Ry
     estimated scf accuracy    <       0.00000047 Ry

     iteration #  8     ecut=    60.00 Ry     beta= 0.40
     Davidson diagonalization with overlap
     ethr =  4.18E-10,  avg # of iterations =  2.0

     total cpu time spent up to now is      530.6 secs

     End of self-consistent calculation

          k = 0.0000 0.0000 0.0000 ( 16519 PWs)   bands (ev):

   -21.4416 -21.4416 -21.4401 -21.4401 -21.3103 -21.3103 -21.3074 -21.3074
   -21.3013 -21.2977 -21.2471 -21.2471 -21.2194 -21.2131 -21.1810 -21.1810
   -21.1078 -21.1078 -21.0970 -21.0970 -21.0523 -21.0523 -21.0513 -21.0513
   -20.9885 -20.9885 -20.9572 -20.9572 -20.9568 -20.9521 -20.7910 -20.7910
   -20.7905 -20.7905 -20.7886 -20.7848 -20.7504 -20.7504 -20.7490 -20.7490
    -8.7390  -8.0940  -7.3725  -5.0453  -4.7577  -2.6039  -0.7169   1.2445
     2.5403   2.5403   3.0097   3.0554   3.0554   3.5349   3.5349   4.1289
     4.3954   4.5858   5.8100   5.8100   6.0239   6.0239   6.3678   6.9540
     7.0603   7.0603   7.6794

          k = 0.0000 0.2887 0.0000 ( 16480 PWs)   bands (ev):

   -21.4419 -21.4406 -21.4383 -21.4367 -21.3108 -21.3096 -21.3096 -21.3082
   -21.2981 -21.2969 -21.2603 -21.2537 -21.2305 -21.1910 -21.1602 -21.1509
   -21.1143 -21.1044 -21.0974 -21.0893 -21.0592 -21.0568 -21.0357 -21.0293
   -21.0134 -20.9978 -20.9911 -20.9458 -20.9438 -20.9326 -20.8125 -20.8123
   -20.7960 -20.7943 -20.7743 -20.7735 -20.7502 -20.7491 -20.7476 -20.7461
    -8.0886  -7.4588  -6.7418  -4.7722  -4.3990  -2.8160  -1.5653  -0.7265
     0.0435   1.0183   1.5609   2.0088   2.1532   2.6270   2.7074   3.5954
     3.9864   5.1059   5.4027   5.5383   5.6279   5.6695   6.6894   7.0851
     7.5208   7.9647   8.4231

          k = 0.0000-0.5774 0.0000 ( 16454 PWs)   bands (ev):

   -21.4423 -21.4408 -21.4378 -21.4363 -21.3108 -21.3090 -21.3078 -21.3062
   -21.2987 -21.2975 -21.2581 -21.2536 -21.2480 -21.1768 -21.1414 -21.1200
   -21.1190 -21.1128 -21.0915 -21.0687 -21.0651 -21.0601 -21.0278 -21.0264
   -21.0192 -21.0181 -21.0021 -20.9473 -20.9416 -20.9350 -20.8136 -20.8125
   -20.7981 -20.7979 -20.7745 -20.7736 -20.7550 -20.7546 -20.7474 -20.7448
    -6.7772  -6.3426  -5.7917  -5.1125  -4.1943  -3.6894  -3.0626  -2.9670
     0.2228   0.4752   0.9407   1.5476   1.7958   2.0539   2.1130   2.3346
     2.7429   4.7709   4.9489   5.1508   5.2229   5.2242   5.6667   7.3463
     7.4888   7.9343   8.2734

          k = 0.2500-0.7217 0.0000 ( 16437 PWs)   bands (ev):

   -21.4398 -21.4385 -21.4360 -21.4346 -21.3110 -21.3098 -21.3090 -21.3065
   -21.2987 -21.2969 -21.2685 -21.2560 -21.2458 -21.1522 -21.1345 -21.1297
   -21.1220 -21.1088 -21.0912 -21.0876 -21.0675 -21.0473 -21.0358 -21.0178
   -21.0174 -21.0145 -21.0039 -20.9472 -20.9381 -20.9250 -20.8257 -20.8247
   -20.7949 -20.7948 -20.7734 -20.7721 -20.7536 -20.7534 -20.7398 -20.7379
    -6.9223  -6.3785  -5.7412  -5.0184  -4.1423  -3.4779  -2.8490  -2.6228
    -0.0303   0.0536   0.1769   0.5225   1.2658   2.1610   2.3849   2.8827
     2.9543   3.8907   4.1015   6.1643   6.2482   6.6721   7.4648   7.9777
     8.1548   8.3323   8.7226

          k =-0.2500-0.1443 0.0000 ( 16480 PWs)   bands (ev):

   -21.4419 -21.4406 -21.4383 -21.4367 -21.3108 -21.3096 -21.3096 -21.3082
   -21.2981 -21.2969 -21.2603 -21.2537 -21.2305 -21.1910 -21.1602 -21.1509
   -21.1143 -21.1044 -21.0974 -21.0893 -21.0592 -21.0568 -21.0357 -21.0293
   -21.0134 -20.9978 -20.9911 -20.9458 -20.9438 -20.9326 -20.8125 -20.8123
   -20.7960 -20.7943 -20.7743 -20.7735 -20.7502 -20.7491 -20.7476 -20.7461
    -8.0886  -7.4588  -6.7418  -4.7722  -4.3990  -2.8160  -1.5653  -0.7265
     0.0435   1.0183   1.5609   2.0088   2.1532   2.6270   2.7074   3.5954
     3.9864   5.1059   5.4028   5.5383   5.6279   5.6695   6.6894   7.0851
     7.5208   7.9647   8.4231

          k = 0.2500-0.1443 0.0000 ( 16480 PWs)   bands (ev):

   -21.4419 -21.4406 -21.4383 -21.4367 -21.3108 -21.3096 -21.3096 -21.3082
   -21.2981 -21.2969 -21.2603 -21.2537 -21.2305 -21.1910 -21.1602 -21.1509
   -21.1143 -21.1044 -21.0974 -21.0893 -21.0592 -21.0568 -21.0357 -21.0293
   -21.0134 -20.9978 -20.9911 -20.9458 -20.9438 -20.9326 -20.8125 -20.8123
   -20.7960 -20.7943 -20.7743 -20.7735 -20.7502 -20.7491 -20.7476 -20.7461
    -8.0886  -7.4588  -6.7418  -4.7722  -4.3990  -2.8160  -1.5653  -0.7265
     0.0435   1.0183   1.5609   2.0088   2.1532   2.6270   2.7074   3.5954
     3.9864   5.1059   5.4027   5.5383   5.6279   5.6695   6.6894   7.0851
     7.5208   7.9647   8.4231

          k = 0.5000 0.2887 0.0000 ( 16454 PWs)   bands (ev):

   -21.4423 -21.4408 -21.4378 -21.4363 -21.3108 -21.3090 -21.3078 -21.3062
   -21.2987 -21.2975 -21.2581 -21.2536 -21.2480 -21.1768 -21.1414 -21.1200
   -21.1190 -21.1128 -21.0915 -21.0687 -21.0651 -21.0601 -21.0278 -21.0264
   -21.0192 -21.0181 -21.0021 -20.9473 -20.9416 -20.9350 -20.8136 -20.8125
   -20.7981 -20.7979 -20.7745 -20.7736 -20.7550 -20.7546 -20.7474 -20.7448
    -6.7772  -6.3426  -5.7917  -5.1125  -4.1943  -3.6894  -3.0626  -2.9670
     0.2228   0.4752   0.9407   1.5476   1.7958   2.0539   2.1130   2.3346
     2.7429   4.7709   4.9489   5.1508   5.2229   5.2243   5.6667   7.3463
     7.4888   7.9343   8.2734

          k =-0.5000 0.2887 0.0000 ( 16454 PWs)   bands (ev):

   -21.4423 -21.4408 -21.4378 -21.4363 -21.3108 -21.3090 -21.3078 -21.3062
   -21.2987 -21.2975 -21.2581 -21.2536 -21.2480 -21.1768 -21.1414 -21.1200
   -21.1190 -21.1128 -21.0915 -21.0687 -21.0651 -21.0601 -21.0278 -21.0264
   -21.0192 -21.0181 -21.0021 -20.9473 -20.9416 -20.9350 -20.8136 -20.8125
   -20.7981 -20.7979 -20.7745 -20.7736 -20.7550 -20.7546 -20.7474 -20.7448
    -6.7772  -6.3426  -5.7917  -5.1125  -4.1943  -3.6894  -3.0626  -2.9670
     0.2228   0.4752   0.9407   1.5476   1.7958   2.0539   2.1130   2.3346
     2.7429   4.7709   4.9489   5.1508   5.2229   5.2242   5.6667   7.3463
     7.4888   7.9343   8.2734

          k = 0.5000 0.5774 0.0000 ( 16437 PWs)   bands (ev):

   -21.4398 -21.4385 -21.4360 -21.4346 -21.3110 -21.3098 -21.3090 -21.3065
   -21.2987 -21.2969 -21.2685 -21.2560 -21.2458 -21.1522 -21.1345 -21.1297
   -21.1220 -21.1088 -21.0912 -21.0876 -21.0675 -21.0473 -21.0358 -21.0178
   -21.0174 -21.0145 -21.0039 -20.9472 -20.9381 -20.9250 -20.8257 -20.8247
   -20.7949 -20.7948 -20.7734 -20.7721 -20.7536 -20.7534 -20.7398 -20.7379
    -6.9223  -6.3785  -5.7412  -5.0184  -4.1423  -3.4779  -2.8490  -2.6228
    -0.0303   0.0536   0.1769   0.5225   1.2658   2.1610   2.3849   2.8827
     2.9543   3.8907   4.1015   6.1643   6.2482   6.6721   7.4648   7.9777
     8.1548   8.3323   8.7224

          k =-0.7500 0.1443 0.0000 ( 16437 PWs)   bands (ev):

   -21.4398 -21.4385 -21.4360 -21.4346 -21.3110 -21.3098 -21.3090 -21.3065
   -21.2987 -21.2969 -21.2685 -21.2560 -21.2458 -21.1522 -21.1345 -21.1297
   -21.1220 -21.1088 -21.0912 -21.0876 -21.0675 -21.0473 -21.0358 -21.0178
   -21.0174 -21.0145 -21.0039 -20.9472 -20.9381 -20.9250 -20.8257 -20.8247
   -20.7949 -20.7948 -20.7734 -20.7721 -20.7536 -20.7534 -20.7398 -20.7379
    -6.9223  -6.3785  -5.7412  -5.0184  -4.1423  -3.4779  -2.8490  -2.6228
    -0.0303   0.0536   0.1769   0.5225   1.2658   2.1610   2.3849   2.8827
     2.9543   3.8907   4.1015   6.1643   6.2482   6.6721   7.4648   7.9777
     8.1548   8.3323   8.7226

     the Fermi energy is     3.2926 ev

!    total energy              =   -1428.61347762 Ry
     estimated scf accuracy    <       0.00000007 Ry
     smearing contrib. (-TS)   =      -0.00008749 Ry
     internal energy E=F+TS    =   -1428.61339013 Ry

     The total energy is F=E-TS. E is the sum of the following terms:
     one-electron contribution =   -4230.76874017 Ry
     hartree contribution      =    2167.71782795 Ry
     xc contribution           =    -348.50291715 Ry
     ewald contribution        =     982.94043924 Ry

     convergence has been achieved in   8 iterations

     Forces acting on atoms (cartesian axes, Ry/au):

     atom    1 type  1   force =    -0.00000020    0.00000015   -0.00453792
[...]
     atom    6 type  1   force =     0.00000000    0.00000000    0.00000000
     atom    7 type  1   force =     0.00000000    0.00000000    0.00000000
     atom    8 type  1   force =     0.00000000    0.00000000    0.00000000
     The SCF correction term to forces
     atom    1 type  1   force =     0.00000014   -0.00000040    0.00009029
     atom    2 type  1   force =    -0.00000006    0.00000001    0.00022725
     atom    3 type  1   force =     0.00000011    0.00000000    0.00001744
     atom    4 type  1   force =     0.00000018   -0.00000037    0.00017221
     atom    5 type  1   force =    -0.00000002    0.00000014   -0.00018175
     atom    6 type  1   force =    -0.00000042    0.00000038   -0.00017820
     atom    7 type  1   force =    -0.00000005    0.00000006   -0.00009510
     atom    8 type  1   force =    -0.00000028    0.00000023   -0.00003318

     Total force =     0.004023     Total SCF correction =     0.000406
     SCF correction compared to forces is large: reduce conv_thr to get better values
     Energy error            =      1.0E-04 Ry
     Gradient error          =      2.0E-03 Ry/Bohr

     number of scf cycles    =  13
     number of bfgs steps    =  12

     energy             old  =   -1428.6173138813 Ry
     energy             new  =   -1428.6174181444 Ry

     CASE: energy            _new < energy            _old

     new trust radius        =       0.0054330282 bohr
     new conv_thr            =       0.0000000104 Ry


ATOMIC_POSITIONS (angstrom)
Ge            1.0031799822        0.5791961681        7.2975432839
Ge            1.0032076471        0.5791874679        4.8047435027
Ge            3.0095373861        1.7375598567       10.7020414578
Ge            3.0095434862        1.7375705064        8.2192806783
Ge            5.0159088265        2.8959335409       14.0674895472
Ge            5.0159016192        2.8959344874       11.5842211533
Ge            1.0031904407        0.5791841987       17.4815024351
Ge            1.0031817440        0.5791824387       14.9888584975



     Writing config-only to output data dir ./out/ge.save/
     NEW-OLD atomic charge density approx. for the potential

     total cpu time spent up to now is     1434.2 secs

     Self-consistent Calculation

     iteration #  1     ecut=    60.00 Ry     beta= 0.40
     Davidson diagonalization with overlap
     ethr =  1.00E-06,  avg # of iterations =  3.0

     Threshold (ethr) on eigenvalues was too large:
     Diagonalizing with lowered threshold

     Davidson diagonalization with overlap
     ethr =  6.00E-09,  avg # of iterations =  4.0

     total cpu time spent up to now is     1463.0 secs

     total energy              =   -1428.61743370 Ry
     estimated scf accuracy    <       0.00000836 Ry

     iteration #  2     ecut=    60.00 Ry     beta= 0.40
     Davidson diagonalization with overlap
     ethr =  7.46E-09,  avg # of iterations =  2.8

     total cpu time spent up to now is     1473.9 secs

     total energy              =   -1428.61742738 Ry
     estimated scf accuracy    <       0.00015588 Ry

     iteration #  3     ecut=    60.00 Ry     beta= 0.40
     Davidson diagonalization with overlap
     ethr =  7.46E-09,  avg # of iterations =  2.1

     total cpu time spent up to now is     1484.6 secs

     total energy              =   -1428.61743781 Ry
     estimated scf accuracy    <       0.00000033 Ry

     iteration #  4     ecut=    60.00 Ry     beta= 0.40
     Davidson diagonalization with overlap
     ethr =  2.90E-10,  avg # of iterations =  3.3

     total cpu time spent up to now is     1495.6 secs

     total energy              =   -1428.61743774 Ry
     estimated scf accuracy    <       0.00000114 Ry

     iteration #  5     ecut=    60.00 Ry     beta= 0.40
     Davidson diagonalization with overlap
     ethr =  2.90E-10,  avg # of iterations =  2.0

     total cpu time spent up to now is     1506.0 secs

     total energy              =   -1428.61743783 Ry
     estimated scf accuracy    <       0.00000060 Ry

     iteration #  6     ecut=    60.00 Ry     beta= 0.40
     Davidson diagonalization with overlap
     ethr =  2.90E-10,  avg # of iterations =  2.1

     total cpu time spent up to now is     1516.5 secs

     total energy              =   -1428.61743787 Ry
     estimated scf accuracy    <       0.00000004 Ry

     iteration #  7     ecut=    60.00 Ry     beta= 0.40
     Davidson diagonalization with overlap
     ethr =  3.88E-11,  avg # of iterations =  2.0

     total cpu time spent up to now is     1527.0 secs

     End of self-consistent calculation

          k = 0.0000 0.0000 0.0000 ( 16519 PWs)   bands (ev):

   -21.4706 -21.4706 -21.4695 -21.4695 -21.3417 -21.3417 -21.3389 -21.3389
   -21.3260 -21.3247 -21.1460 -21.1460 -21.1022 -21.1011 -21.0831 -21.0831
   -21.0261 -21.0261 -21.0205 -21.0205 -20.9728 -20.9728 -20.9723 -20.9723
   -20.9044 -20.9044 -20.8934 -20.8920 -20.8681 -20.8681 -20.7329 -20.7281
   -20.7280 -20.7280 -20.7263 -20.7263 -20.6889 -20.6889 -20.6870 -20.6870
    -8.4770  -7.9114  -7.2714  -4.9956  -4.7654  -2.5432  -0.7736   1.1056
     2.7824   2.7824   2.9464   3.2408   3.2408   3.6714   3.6714   4.3480
     4.3759   4.7303   5.8619   5.8619   6.0318   6.0318   6.2440   6.8498
     7.1165   7.1165   7.7591

          k = 0.0000 0.2887 0.0000 ( 16480 PWs)   bands (ev):

   -21.4716 -21.4694 -21.4669 -21.4665 -21.3419 -21.3416 -21.3411 -21.3391
   -21.3233 -21.3228 -21.1513 -21.1509 -21.1157 -21.0857 -21.0630 -21.0543
   -21.0327 -21.0217 -21.0166 -21.0081 -20.9735 -20.9704 -20.9578 -20.9531
   -20.9386 -20.9194 -20.9139 -20.8800 -20.8573 -20.8563 -20.7502 -20.7487
   -20.7332 -20.7317 -20.7167 -20.7163 -20.6918 -20.6909 -20.6858 -20.6849
    -7.8279  -7.2764  -6.6384  -4.6995  -4.3996  -2.7246  -1.4947  -0.6700
     0.2186   1.0778   1.8101   1.9978   2.3344   2.6329   2.8270   3.5742
     3.9475   5.1029   5.5269   5.5442   5.6170   5.7574   6.4387   7.0508
     7.4848   8.0181   8.3539

          k = 0.0000-0.5774 0.0000 ( 16454 PWs)   bands (ev):

   -21.4726 -21.4689 -21.4671 -21.4654 -21.3419 -21.3405 -21.3393 -21.3379
   -21.3238 -21.3232 -21.1537 -21.1399 -21.1321 -21.0750 -21.0479 -21.0343
   -21.0259 -21.0187 -21.0047 -20.9862 -20.9803 -20.9764 -20.9572 -20.9523
   -20.9427 -20.9314 -20.9291 -20.8801 -20.8705 -20.8487 -20.7505 -20.7492
   -20.7374 -20.7361 -20.7158 -20.7155 -20.7015 -20.7002 -20.6854 -20.6843
    -6.5216  -6.1408  -5.6580  -4.9588  -4.1426  -3.5728  -3.0230  -2.9246
     0.3343   0.5707   1.1929   1.7299   1.7807   2.0535   2.2310   2.3038
     2.7132   4.8674   4.9742   5.1504   5.2105   5.3088   5.5419   7.2352
     7.3108   7.7772   8.2815

          k = 0.2500-0.7217 0.0000 ( 16437 PWs)   bands (ev):

   -21.4690 -21.4676 -21.4651 -21.4638 -21.3423 -21.3408 -21.3404 -21.3384
   -21.3242 -21.3218 -21.1624 -21.1428 -21.1294 -21.0535 -21.0426 -21.0405
   -21.0301 -21.0204 -21.0010 -20.9988 -20.9822 -20.9650 -20.9519 -20.9468
   -20.9415 -20.9394 -20.9312 -20.8789 -20.8675 -20.8400 -20.7612 -20.7599
   -20.7340 -20.7332 -20.7155 -20.7142 -20.6997 -20.6987 -20.6790 -20.6786
    -6.6640  -6.1907  -5.6259  -4.8498  -4.0920  -3.4053  -2.7804  -2.5584
     0.1731   0.2237   0.3342   0.6268   1.3225   2.1782   2.3852   2.8728
     2.9139   3.8752   4.0735   6.0554   6.1035   6.4956   7.3362   7.9618
     8.2336   8.3905   8.8176

          k =-0.2500-0.1443 0.0000 ( 16480 PWs)   bands (ev):

   -21.4716 -21.4694 -21.4669 -21.4665 -21.3419 -21.3416 -21.3411 -21.3391
   -21.3233 -21.3228 -21.1513 -21.1509 -21.1157 -21.0857 -21.0630 -21.0543
   -21.0327 -21.0217 -21.0166 -21.0081 -20.9735 -20.9704 -20.9578 -20.9531
   -20.9386 -20.9194 -20.9139 -20.8800 -20.8573 -20.8563 -20.7502 -20.7487
   -20.7332 -20.7317 -20.7167 -20.7163 -20.6918 -20.6909 -20.6858 -20.6849
    -7.8279  -7.2764  -6.6384  -4.6995  -4.3996  -2.7246  -1.4947  -0.6700
     0.2186   1.0778   1.8101   1.9978   2.3344   2.6329   2.8270   3.5742
     3.9475   5.1029   5.5269   5.5442   5.6170   5.7574   6.4387   7.0508
     7.4848   8.0180   8.3539

          k = 0.2500-0.1443 0.0000 ( 16480 PWs)   bands (ev):

   -21.4716 -21.4694 -21.4669 -21.4665 -21.3419 -21.3416 -21.3411 -21.3391
   -21.3233 -21.3228 -21.1513 -21.1509 -21.1157 -21.0857 -21.0630 -21.0543
   -21.0327 -21.0217 -21.0166 -21.0081 -20.9735 -20.9704 -20.9578 -20.9531
   -20.9386 -20.9194 -20.9139 -20.8800 -20.8573 -20.8563 -20.7502 -20.7487
   -20.7332 -20.7317 -20.7167 -20.7163 -20.6918 -20.6909 -20.6858 -20.6849
    -7.8279  -7.2764  -6.6384  -4.6995  -4.3996  -2.7246  -1.4947  -0.6700
     0.2186   1.0778   1.8101   1.9978   2.3344   2.6329   2.8270   3.5742
     3.9475   5.1029   5.5269   5.5442   5.6170   5.7574   6.4387   7.0508
     7.4848   8.0180   8.3539

          k = 0.5000 0.2887 0.0000 ( 16454 PWs)   bands (ev):

   -21.4726 -21.4689 -21.4671 -21.4654 -21.3419 -21.3405 -21.3393 -21.3379
   -21.3238 -21.3232 -21.1537 -21.1399 -21.1321 -21.0750 -21.0479 -21.0343
   -21.0259 -21.0187 -21.0047 -20.9862 -20.9803 -20.9764 -20.9572 -20.9523
   -20.9427 -20.9314 -20.9291 -20.8801 -20.8705 -20.8487 -20.7505 -20.7492
   -20.7374 -20.7361 -20.7158 -20.7155 -20.7015 -20.7002 -20.6854 -20.6843
    -6.5216  -6.1408  -5.6580  -4.9588  -4.1426  -3.5728  -3.0230  -2.9246
     0.3343   0.5707   1.1929   1.7299   1.7807   2.0535   2.2310   2.3038
     2.7132   4.8674   4.9742   5.1504   5.2105   5.3088   5.5419   7.2352
     7.3108   7.7772   8.2815

          k =-0.5000 0.2887 0.0000 ( 16454 PWs)   bands (ev):

   -21.4726 -21.4689 -21.4671 -21.4654 -21.3419 -21.3405 -21.3393 -21.3379
   -21.3238 -21.3232 -21.1537 -21.1399 -21.1321 -21.0750 -21.0479 -21.0343
   -21.0259 -21.0187 -21.0047 -20.9862 -20.9803 -20.9764 -20.9572 -20.9523
   -20.9427 -20.9314 -20.9291 -20.8801 -20.8705 -20.8487 -20.7505 -20.7492
   -20.7374 -20.7361 -20.7158 -20.7155 -20.7015 -20.7002 -20.6854 -20.6843
    -6.5216  -6.1408  -5.6580  -4.9588  -4.1426  -3.5728  -3.0230  -2.9246
     0.3343   0.5707   1.1929   1.7299   1.7807   2.0535   2.2310   2.3038
     2.7132   4.8674   4.9742   5.1504   5.2105   5.3088   5.5419   7.2352
     7.3107   7.7773   8.2815

          k = 0.5000 0.5774 0.0000 ( 16437 PWs)   bands (ev):

   -21.4690 -21.4676 -21.4651 -21.4638 -21.3423 -21.3408 -21.3404 -21.3384
   -21.3242 -21.3218 -21.1624 -21.1428 -21.1294 -21.0535 -21.0426 -21.0405
   -21.0301 -21.0204 -21.0010 -20.9988 -20.9822 -20.9650 -20.9519 -20.9468
   -20.9415 -20.9394 -20.9312 -20.8789 -20.8675 -20.8400 -20.7612 -20.7599
   -20.7340 -20.7332 -20.7155 -20.7142 -20.6997 -20.6987 -20.6790 -20.6786
    -6.6640  -6.1907  -5.6259  -4.8498  -4.0920  -3.4053  -2.7804  -2.5584
     0.1731   0.2237   0.3342   0.6268   1.3225   2.1782   2.3852   2.8728
     2.9139   3.8752   4.0735   6.0554   6.1036   6.4956   7.3362   7.9618
     8.2336   8.3905   8.8176

          k =-0.7500 0.1443 0.0000 ( 16437 PWs)   bands (ev):

   -21.4690 -21.4676 -21.4651 -21.4638 -21.3423 -21.3408 -21.3404 -21.3384
   -21.3242 -21.3218 -21.1624 -21.1428 -21.1294 -21.0535 -21.0426 -21.0405
   -21.0301 -21.0204 -21.0010 -20.9988 -20.9822 -20.9650 -20.9519 -20.9468
   -20.9415 -20.9394 -20.9312 -20.8789 -20.8675 -20.8400 -20.7612 -20.7599
   -20.7340 -20.7332 -20.7155 -20.7142 -20.6997 -20.6987 -20.6790 -20.6786
    -6.6640  -6.1907  -5.6259  -4.8498  -4.0920  -3.4053  -2.7804  -2.5584
     0.1731   0.2237   0.3342   0.6268   1.3225   2.1782   2.3852   2.8728
     2.9139   3.8752   4.0735   6.0554   6.1035   6.4956   7.3362   7.9618
     8.2336   8.3905   8.8176

     the Fermi energy is     3.3824 ev

!    total energy              =   -1428.61743788 Ry
     estimated scf accuracy    <          3.7E-09 Ry
     smearing contrib. (-TS)   =      -0.00053605 Ry
     internal energy E=F+TS    =   -1428.61690182 Ry

     The total energy is F=E-TS. E is the sum of the following terms:
     one-electron contribution =   -3955.32306518 Ry
     hartree contribution      =    2030.20189829 Ry
     xc contribution           =    -348.40942449 Ry
     ewald contribution        =     844.91368956 Ry

     convergence has been achieved in   7 iterations

     Forces acting on atoms (cartesian axes, Ry/au):

     atom    1 type  1   force =     0.00000020   -0.00000031    0.00020373
     atom    2 type  1   force =    -0.00000041    0.00000008   -0.00049313
     atom    3 type  1   force =     0.00000026    0.00000013   -0.00017764
     atom    4 type  1   force =    -0.00000000   -0.00000010    0.00033110
     atom    5 type  1   force =     0.00000031   -0.00000021   -0.00049958
     atom    6 type  1   force =     0.00000010    0.00000007    0.00032976
     atom    7 type  1   force =    -0.00000011   -0.00000005    0.00051912
     atom    8 type  1   force =    -0.00000035    0.00000040   -0.00021336
     The non-local contrib.  to forces
     atom    1 type  1   force =     0.00000135   -0.00000134    0.17773677
     atom    2 type  1   force =    -0.00000437    0.00000131    0.44114642
     atom    3 type  1   force =     0.00000107    0.00000086    0.06710595
     atom    4 type  1   force =     0.00000173   -0.00000174   -0.01391486
     atom    5 type  1   force =    -0.00000011    0.00000031    0.01392008
     atom    6 type  1   force =     0.00000126    0.00000099   -0.06723696
     atom    7 type  1   force =    -0.00000134   -0.00000022   -0.44118193
     atom    8 type  1   force =    -0.00000016    0.00000015   -0.17773930
     The ionic contribution  to forces
     atom    1 type  1   force =    -0.00009316    0.00001965  -88.59718653
     atom    2 type  1   force =     0.00008167   -0.00002581 -124.27841729
     atom    3 type  1   force =    -0.00000825   -0.00003364  -10.88530726
     atom    4 type  1   force =     0.00002784    0.00003428  -66.36561477
     atom    5 type  1   force =     0.00004871   -0.00002219   66.35942657
     atom    6 type  1   force =    -0.00002623    0.00000743   10.89384555
     atom    7 type  1   force =     0.00002498    0.00000563  124.28532464
     atom    8 type  1   force =    -0.00005556    0.00001466   88.58792909
     The local contribution  to forces
     atom    1 type  1   force =     0.00009214   -0.00001865   88.41699396
     atom    2 type  1   force =    -0.00007781    0.00002455  123.83884619
     atom    3 type  1   force =     0.00000735    0.00003309   10.81758461
     atom    4 type  1   force =    -0.00002974   -0.00003263   66.37958185
     atom    5 type  1   force =    -0.00004835    0.00002162  -66.37349310
     atom    6 type  1   force =     0.00002509   -0.00000837  -10.82603243
     atom    7 type  1   force =    -0.00002384   -0.00000547 -123.84558644
     atom    8 type  1   force =     0.00005534   -0.00001455  -88.40755820
     The core correction contribution to forces
     atom    1 type  1   force =    -0.00000012    0.00000003    0.00265437
     atom    2 type  1   force =     0.00000008   -0.00000002   -0.00188156
     atom    3 type  1   force =    -0.00000002   -0.00000004    0.00031053
     atom    4 type  1   force =     0.00000007    0.00000003    0.00016554
     atom    5 type  1   force =     0.00000005   -0.00000002   -0.00016115
     atom    6 type  1   force =    -0.00000003    0.00000002   -0.00031411
     atom    7 type  1   force =     0.00000002    0.00000001    0.00188309
     atom    8 type  1   force =    -0.00000006   -0.00000001   -0.00265723
     The Hubbard contrib.    to forces
     atom    1 type  1   force =     0.00000000    0.00000000    0.00000000
     atom    2 type  1   force =     0.00000000    0.00000000    0.00000000
     atom    3 type  1   force =     0.00000000    0.00000000    0.00000000
     atom    4 type  1   force =     0.00000000    0.00000000    0.00000000
     atom    5 type  1   force =     0.00000000    0.00000000    0.00000000
     atom    6 type  1   force =     0.00000000    0.00000000    0.00000000
     atom    7 type  1   force =     0.00000000    0.00000000    0.00000000
     atom    8 type  1   force =     0.00000000    0.00000000    0.00000000
     The SCF correction term to forces
     atom    1 type  1   force =    -0.00000002    0.00000000    0.00000420
     atom    2 type  1   force =     0.00000000    0.00000006   -0.00018784
     atom    3 type  1   force =     0.00000010   -0.00000014    0.00012758
     atom    4 type  1   force =     0.00000007   -0.00000003    0.00011238
     atom    5 type  1   force =    -0.00000001    0.00000007   -0.00019293
     atom    6 type  1   force =    -0.00000000    0.00000002    0.00006676
     atom    7 type  1   force =     0.00000004    0.00000001    0.00007881
     atom    8 type  1   force =     0.00000007    0.00000015   -0.00018867

     Total force =     0.001048     Total SCF correction =     0.000384
     SCF correction compared to forces is large: reduce conv_thr to get better values
     Energy error            =      2.0E-05 Ry
     Gradient error          =      5.2E-04 Ry/Bohr

     bfgs converged in  14 scf cycles and  13 bfgs steps
     (criteria: energy <  1.0E-04 Ry, force <  1.0E-03 Ry/Bohr)

     End of BFGS Geometry Optimization

     Final energy             =   -1428.6174378766 Ry

     File ./out/ge.bfgs deleted, as requested
Begin final coordinates

ATOMIC_POSITIONS (angstrom)
Ge            1.0031799822        0.5791961681        7.2975432839
Ge            1.0032076471        0.5791874679        4.8047435027
Ge            3.0095373861        1.7375598567       10.7020414578
Ge            3.0095434862        1.7375705064        8.2192806783
Ge            5.0159088265        2.8959335409       14.0674895472
Ge            5.0159016192        2.8959344874       11.5842211533
Ge            1.0031904407        0.5791841987       17.4815024351
Ge            1.0031817440        0.5791824387       14.9888584975
End final coordinates



     Writing all to output data dir ./out/ge.save/

     init_run     :      6.72s CPU      6.98s WALL (       1 calls)
     electrons    :   1399.55s CPU   1456.04s WALL (      14 calls)
     update_pot   :     31.94s CPU     32.54s WALL (      13 calls)
     forces       :     31.89s CPU     32.80s WALL (      14 calls)

     Called by init_run:
     wfcinit      :      3.89s CPU      4.06s WALL (       1 calls)
     potinit      :      1.47s CPU      1.51s WALL (       1 calls)
     hinit0       :      1.30s CPU      1.32s WALL (       1 calls)

     Called by electrons:
     c_bands      :   1140.18s CPU   1181.82s WALL (     118 calls)
     sum_band     :    229.43s CPU    236.92s WALL (     118 calls)
     v_of_rho     :     24.96s CPU     26.35s WALL (     128 calls)
     mix_rho      :      3.09s CPU      3.36s WALL (     118 calls)

     Called by c_bands:
     init_us_2    :      8.04s CPU      8.21s WALL (     753 calls)
     init_us_2:cp :      8.03s CPU      8.20s WALL (     753 calls)
     cegterg      :   1082.61s CPU   1117.81s WALL (     354 calls)

     Called by *egterg:
     cdiaghg      :     19.67s CPU     19.90s WALL (    1324 calls)
     h_psi        :    914.20s CPU    946.50s WALL (    1378 calls)
     g_psi        :      2.36s CPU      2.40s WALL (    1021 calls)

     Called by h_psi:
     h_psi:calbec :     43.90s CPU     44.69s WALL (    1378 calls)
     vloc_psi     :    822.07s CPU    852.50s WALL (    1378 calls)
     add_vuspsi   :     43.42s CPU     44.00s WALL (    1378 calls)

     General routines
     calbec       :     52.10s CPU     53.03s WALL (    1546 calls)
     fft          :     16.50s CPU     17.67s WALL (    1437 calls)
     ffts         :      0.84s CPU      0.96s WALL (     118 calls)
     fftw         :    771.61s CPU    803.01s WALL (  139886 calls)

     Parallel routines

     PWSCF        :  24m35.80s CPU  25m40.85s WALL


   This run was terminated on:   8:21:31  28Apr2025            

=------------------------------------------------------------------------------=
   JOB DONE.
=------------------------------------------------------------------------------=
