
     Program PWSCF v.6.8 starts on 28Apr2025 at 15:27: 1 

     This program is part of the open-source Quantum ESPRESSO suite
     for quantum simulation of materials; please cite
         "P. Giannozzi et al., J. Phys.:Condens. Matter 21 395502 (2009);
         "P. Giannozzi et al., J. Phys.:Condens. Matter 29 465901 (2017);
         "P. Giannozzi et al., J. Chem. Phys. 152 154105 (2020);
          URL http://www.quantum-espresso.org", 
     in publications or presentations arising from this work. More details at
     http://www.quantum-espresso.org/quote

     Parallel version (MPI & OpenMP), running on      56 processor cores
     Number of MPI processes:                56
     Threads/MPI process:                     1

     MPI processes distributed on     1 nodes
     R & G space division:  proc/nbgrp/npool/nimage =      56
     186213 MiB available memory on the printing compute node when the environment starts
 
     Reading input from surface_relax.in
Warning: card &CELL ignored
Warning: card / ignored
Warning: card &FCP ignored
Warning: card / ignored
Warning: card &RISM ignored
Warning: card / ignored

     Current dimensions of program PWSCF are:
     Max number of different atomic species (ntypx) = 10
     Max number of k-points (npk) =  40000
     Max angular momentum in pseudopotentials (lmaxx) =  4

     Subspace diagonalization in iterative solution of the eigenvalue problem:
     one sub-group per band group will be used
     scalapack distributed-memory algorithm (size of sub-group:  7*  7 procs)

 
     Parallelization info
     --------------------
     sticks:   dense  smooth     PW     G-vecs:    dense   smooth      PW
     Min          39      39     10                 4853     4853     694
     Max          40      40     11                 4868     4868     719
     Sum        2209    2209    601               272081   272081   39673
 
     Using Slab Decomposition
 


     bravais-lattice index     =            0
     lattice parameter (alat)  =      10.7239  a.u.
     unit-cell volume          =    4331.4669 (a.u.)^3
     number of atoms/cell      =           16
     number of atomic types    =            1
     number of electrons       =       224.00
     number of Kohn-Sham states=          134
     kinetic-energy cutoff     =      60.0000  Ry
     charge density cutoff     =     240.0000  Ry
     scf convergence threshold =      1.0E-06
     mixing beta               =       0.4000
     number of iterations used =            8  plain     mixing
     energy convergence thresh.=      1.0E-04
     force convergence thresh. =      1.0E-03
     Exchange-correlation= PBE
                           (   1   4   3   4   0   0   0)
     nstep                     =           50


     celldm(1)=  10.723920  celldm(2)=   0.000000  celldm(3)=   0.000000
     celldm(4)=   0.000000  celldm(5)=   0.000000  celldm(6)=   0.000000

     crystal axes: (cart. coord. in units of alat)
               a(1) = (   1.000000   0.000000   0.000000 )  
               a(2) = (   0.000000   1.000000   0.000000 )  
               a(3) = (   0.000000   0.000000   3.512160 )  

     reciprocal axes: (cart. coord. in units 2 pi/alat)
               b(1) = (  1.000000  0.000000  0.000000 )  
               b(2) = (  0.000000  1.000000  0.000000 )  
               b(3) = (  0.000000  0.000000  0.284725 )  


     PseudoPot. # 1 for Ge read from file:
     ./Ge.upf
     MD5 check sum: 087fa14d6c89b52166990835c3b338da
     Pseudo is Norm-conserving + core correction, Zval = 14.0
     Generated using ONCVPSP code by D. R. Hamann
     Using radial grid of 1560 points,  6 beta functions with: 
                l(1) =   0
                l(2) =   0
                l(3) =   1
                l(4) =   1
                l(5) =   2
                l(6) =   2

     atomic species   valence    mass     pseudopotential
        Ge            14.00    72.63000     Ge( 1.00)

     No symmetry found



   Cartesian axes

     site n.     atom                  positions (alat units)
         1           Ge  tau(   1) = (   0.0028304   0.5014256   0.8836368  )
         2           Ge  tau(   2) = (   0.2520822   0.7514242   1.1298628  )
         3           Ge  tau(   3) = (   0.5012091  -0.0001767   0.8792784  )
         4           Ge  tau(   4) = (   0.7524671   0.2509600   1.1340327  )
         5           Ge  tau(   5) = (  -0.0013522  -0.0017086   1.3813027  )
         6           Ge  tau(   6) = (   0.2479694   0.2499736   1.6317137  )
         7           Ge  tau(   7) = (   0.5021886   0.5016983   1.3801647  )
         8           Ge  tau(   8) = (   0.7505917   0.7523149   1.6299309  )
         9           Ge  tau(   9) = (   0.0029568   0.5022917   1.8844328  )
        10           Ge  tau(  10) = (   0.2489013   0.7474726   2.1285243  )
        11           Ge  tau(  11) = (   0.4978747   0.0003024   1.8806389  )
        12           Ge  tau(  12) = (   0.7530601   0.2499646   2.1316361  )
        13           Ge  tau(  13) = (  -0.0016176  -0.0023988   2.3822156  )
        14           Ge  tau(  14) = (   0.2525538   0.2529885   2.6280540  )
        15           Ge  tau(  15) = (   0.4982706   0.4990174   2.3790972  )
        16           Ge  tau(  16) = (   0.7516477   0.7492291   2.6275922  )

     number of k points=     4  Gaussian smearing, width (Ry)=  0.0100
                       cart. coord. in units 2pi/alat
        k(    1) = (   0.0000000   0.0000000   0.0000000), wk =   0.5000000
        k(    2) = (   0.0000000  -0.5000000   0.0000000), wk =   0.5000000
        k(    3) = (  -0.5000000  -0.5000000   0.0000000), wk =   0.5000000
        k(    4) = (  -0.5000000   0.0000000   0.0000000), wk =   0.5000000

     Dense  grid:   272081 G-vectors     FFT dimensions: (  54,  54, 192)

     Estimated max dynamical RAM per process >      18.56 MB

     Estimated total dynamical RAM >       1.01 GB

     Initial potential from superposition of free atoms

     starting charge  223.98683, renormalised to  224.00000

     negative rho (up, down):  1.598E-05 0.000E+00
     Starting wfcs are  144 randomized atomic wfcs

     total cpu time spent up to now is        0.9 secs

     Self-consistent Calculation

     iteration #  1     ecut=    60.00 Ry     beta= 0.40
     Davidson diagonalization with overlap
     ethr =  1.00E-02,  avg # of iterations =  4.0

     Threshold (ethr) on eigenvalues was too large:
     Diagonalizing with lowered threshold

     Davidson diagonalization with overlap
     ethr =  2.06E-04,  avg # of iterations = 10.0

     negative rho (up, down):  5.520E-06 0.000E+00

     total cpu time spent up to now is        4.9 secs

     total energy              =   -2857.18849129 Ry
     estimated scf accuracy    <       0.50797396 Ry

     iteration #  2     ecut=    60.00 Ry     beta= 0.40
     Davidson diagonalization with overlap
     ethr =  2.27E-04,  avg # of iterations =  8.0

     negative rho (up, down):  3.350E-06 0.000E+00

     total cpu time spent up to now is        6.9 secs

     total energy              =   -2857.01609026 Ry
     estimated scf accuracy    <       2.45431076 Ry

     iteration #  3     ecut=    60.00 Ry     beta= 0.40
     Davidson diagonalization with overlap
     ethr =  2.27E-04,  avg # of iterations =  5.8

     negative rho (up, down):  1.453E-07 0.000E+00

     total cpu time spent up to now is        8.5 secs

     total energy              =   -2857.26338367 Ry
     estimated scf accuracy    <       0.21965454 Ry

     iteration #  4     ecut=    60.00 Ry     beta= 0.40
     Davidson diagonalization with overlap
     ethr =  9.81E-05,  avg # of iterations =  8.0

     negative rho (up, down):  5.402E-08 0.000E+00

     total cpu time spent up to now is       10.3 secs

     total energy              =   -2857.16711329 Ry
     estimated scf accuracy    <       2.96562685 Ry

     iteration #  5     ecut=    60.00 Ry     beta= 0.40
     Davidson diagonalization with overlap
     ethr =  9.81E-05,  avg # of iterations =  9.5

     total cpu time spent up to now is       12.1 secs

     total energy              =   -2857.28357456 Ry
     estimated scf accuracy    <       0.02657105 Ry

     iteration #  6     ecut=    60.00 Ry     beta= 0.40
     Davidson diagonalization with overlap
     ethr =  1.19E-05,  avg # of iterations =  6.5

     total cpu time spent up to now is       13.7 secs

     total energy              =   -2857.28506684 Ry
     estimated scf accuracy    <       0.00232928 Ry

     iteration #  7     ecut=    60.00 Ry     beta= 0.40
     Davidson diagonalization with overlap
     ethr =  1.04E-06,  avg # of iterations =  7.2

     total cpu time spent up to now is       15.4 secs

     total energy              =   -2857.28514238 Ry
     estimated scf accuracy    <       0.00062127 Ry

     iteration #  8     ecut=    60.00 Ry     beta= 0.40
     Davidson diagonalization with overlap
     ethr =  2.77E-07,  avg # of iterations =  2.0

     total cpu time spent up to now is       16.6 secs

     total energy              =   -2857.28517880 Ry
     estimated scf accuracy    <       0.00007607 Ry

     iteration #  9     ecut=    60.00 Ry     beta= 0.40
     Davidson diagonalization with overlap
     ethr =  3.40E-08,  avg # of iterations =  2.0

     total cpu time spent up to now is       17.9 secs

     total energy              =   -2857.28518937 Ry
     estimated scf accuracy    <       0.00000664 Ry

     iteration # 10     ecut=    60.00 Ry     beta= 0.40
     Davidson diagonalization with overlap
     ethr =  2.96E-09,  avg # of iterations =  2.5

     total cpu time spent up to now is       19.3 secs

     End of self-consistent calculation

          k = 0.0000 0.0000 0.0000 ( 33997 PWs)   bands (ev):

   -21.7009 -21.6806 -21.6720 -21.6645 -21.6559 -21.6452 -21.6259 -21.6213
   -21.6182 -21.6064 -21.6007 -21.5955 -21.5895 -21.5877 -21.5794 -21.5664
   -21.5603 -21.5570 -21.5561 -21.5484 -21.5329 -21.4970 -21.4939 -21.4817
   -21.4795 -21.4599 -21.4571 -21.4505 -21.4503 -21.4464 -21.4171 -21.4157
   -21.4082 -21.4073 -21.3918 -21.3897 -21.3894 -21.3756 -21.3729 -21.3681
   -21.3616 -21.3550 -21.3523 -21.3510 -21.3485 -21.3331 -21.3268 -21.3260
   -21.3214 -21.3197 -21.3127 -21.3110 -21.3089 -21.3071 -21.2924 -21.2845
   -21.2427 -21.2391 -21.2286 -21.2246 -21.1731 -21.1621 -21.1490 -21.1440
   -21.1419 -21.1382 -21.1331 -21.1308 -21.1092 -21.1015 -21.0968 -21.0894
   -21.0878 -21.0804 -21.0740 -21.0721 -21.0280 -21.0249 -21.0198 -21.0175
    -9.1282  -8.4179  -7.3620  -6.0321  -5.5157  -5.4830  -5.4751  -5.4616
    -5.2505  -5.2257  -4.5173  -4.4948  -4.3242  -2.4150  -0.3837  -0.2205
    -0.2148  -0.1792  -0.1744   0.2965   0.2993   0.5303   0.5791   1.2305
     1.3162   1.6564   2.1520   2.1631   2.1660   2.3990   2.5527   2.5604
     2.9974   3.5576   4.1958   4.2170   4.7108   4.7914   4.9006   4.9071
     4.9515   5.2599   5.4032   5.5804   5.6006   5.6357   5.7963   6.5860
     6.6102   6.6577   7.5637   7.7832   8.0300   8.0445

          k = 0.0000-0.5000 0.0000 ( 33994 PWs)   bands (ev):

   -21.7077 -21.6899 -21.6821 -21.6722 -21.6418 -21.6353 -21.6284 -21.6222
   -21.6121 -21.6066 -21.6021 -21.5990 -21.5847 -21.5790 -21.5743 -21.5678
   -21.5669 -21.5619 -21.5412 -21.5332 -21.5268 -21.5230 -21.4857 -21.4807
   -21.4787 -21.4761 -21.4583 -21.4552 -21.4408 -21.4366 -21.4133 -21.4128
   -21.4100 -21.4079 -21.4044 -21.3972 -21.3873 -21.3862 -21.3705 -21.3655
   -21.3559 -21.3550 -21.3540 -21.3514 -21.3389 -21.3341 -21.3203 -21.3181
   -21.3170 -21.3163 -21.3159 -21.3142 -21.3124 -21.3095 -21.3086 -21.3028
   -21.2295 -21.2286 -21.2267 -21.2219 -21.1577 -21.1566 -21.1520 -21.1478
   -21.1357 -21.1351 -21.1251 -21.1237 -21.1051 -21.1034 -21.1008 -21.0996
   -21.0992 -21.0949 -21.0942 -21.0903 -21.0160 -21.0144 -21.0137 -21.0117
    -8.1748  -8.1294  -7.5438  -7.5003  -6.6515  -6.6279  -5.6907  -5.6007
    -4.5669  -4.5277  -3.4530  -3.4276  -2.3903  -2.3594  -1.6272  -1.6026
    -0.5651  -0.5401  -0.5258  -0.5045   0.2834   0.2946   0.4789   0.5081
     1.2593   1.2748   1.5794   1.6154   2.6798   2.6900   2.7399   2.7418
     3.3923   3.3990   3.7725   3.7849   5.5379   5.5613   6.0061   6.0192
     6.5590   6.5955   6.8911   6.9073   7.1912   7.2270   7.5226   7.5303
     8.0213   8.0517   8.0624   8.0779   8.3276   8.3615

          k =-0.5000-0.5000 0.0000 ( 34004 PWs)   bands (ev):

   -21.7047 -21.6862 -21.6759 -21.6545 -21.6413 -21.6365 -21.6314 -21.6294
   -21.6254 -21.6209 -21.6123 -21.6016 -21.5928 -21.5913 -21.5872 -21.5637
   -21.5543 -21.5516 -21.5411 -21.5323 -21.5296 -21.5262 -21.5252 -21.4992
   -21.4835 -21.4425 -21.4395 -21.4384 -21.4350 -21.4339 -21.4234 -21.4212
   -21.4100 -21.3990 -21.3987 -21.3958 -21.3924 -21.3857 -21.3638 -21.3627
   -21.3556 -21.3530 -21.3501 -21.3496 -21.3416 -21.3369 -21.3333 -21.3289
   -21.3264 -21.3223 -21.3186 -21.3135 -21.3101 -21.3070 -21.2984 -21.2893
   -21.2484 -21.2442 -21.2310 -21.2267 -21.1740 -21.1624 -21.1587 -21.1488
   -21.1360 -21.1254 -21.1228 -21.1180 -21.1068 -21.1047 -21.1008 -21.0937
   -21.0857 -21.0763 -21.0758 -21.0738 -21.0288 -21.0273 -21.0239 -21.0209
    -7.4750  -7.4313  -7.3891  -7.3445  -7.2393  -6.9703  -6.9346  -5.0450
    -4.9534  -3.8544  -3.8052  -3.7815  -3.6447  -3.2969  -2.5496  -2.5185
     0.1121   0.1540   0.1631   0.2163   1.4127   1.6863   1.8362   1.8791
     1.9270   1.9748   2.0263   2.1075   2.1123   2.2459   2.2969   2.6181
     3.1604   3.1691   4.1734   4.7767   4.9634   4.9740   5.0990   5.3122
     5.3375   5.4466   5.4709   7.1165   7.1254   7.3536   7.4497   7.4714
     7.4945   7.5213   7.5608   7.6258   7.9127   8.0325

          k =-0.5000 0.0000 0.0000 ( 33994 PWs)   bands (ev):

   -21.7080 -21.6897 -21.6822 -21.6721 -21.6401 -21.6360 -21.6296 -21.6219
   -21.6117 -21.6064 -21.6035 -21.5984 -21.5838 -21.5799 -21.5736 -21.5682
   -21.5670 -21.5619 -21.5417 -21.5318 -21.5277 -21.5230 -21.4856 -21.4813
   -21.4783 -21.4762 -21.4583 -21.4551 -21.4407 -21.4367 -21.4133 -21.4125
   -21.4103 -21.4078 -21.4042 -21.3972 -21.3884 -21.3852 -21.3704 -21.3657
   -21.3558 -21.3549 -21.3539 -21.3516 -21.3387 -21.3344 -21.3202 -21.3181
   -21.3168 -21.3164 -21.3157 -21.3145 -21.3127 -21.3094 -21.3084 -21.3029
   -21.2297 -21.2278 -21.2272 -21.2221 -21.1578 -21.1561 -21.1515 -21.1483
   -21.1362 -21.1349 -21.1251 -21.1236 -21.1051 -21.1030 -21.1007 -21.0998
   -21.0993 -21.0950 -21.0938 -21.0905 -21.0159 -21.0146 -21.0136 -21.0117
    -8.1775  -8.1269  -7.5375  -7.5076  -6.6517  -6.6260  -5.6754  -5.6158
    -4.5648  -4.5306  -3.4676  -3.4142  -2.3815  -2.3668  -1.6256  -1.6030
    -0.5647  -0.5378  -0.5233  -0.5107   0.2769   0.3014   0.4812   0.5044
     1.2634   1.2709   1.5801   1.6149   2.6777   2.6930   2.7398   2.7416
     3.3906   3.4009   3.7719   3.7854   5.5264   5.5725   6.0063   6.0180
     6.5588   6.5961   6.8840   6.9157   7.1882   7.2304   7.5235   7.5288
     8.0252   8.0555   8.0626   8.0735   8.3187   8.3687

     the Fermi energy is     2.9111 ev

!    total energy              =   -2857.28519010 Ry
     estimated scf accuracy    <       0.00000079 Ry
     smearing contrib. (-TS)   =      -0.00258685 Ry
     internal energy E=F+TS    =   -2857.28260325 Ry

     The total energy is F=E-TS. E is the sum of the following terms:
     one-electron contribution =   -7947.26237360 Ry
     hartree contribution      =    4075.90524943 Ry
     xc contribution           =    -697.41894507 Ry
     ewald contribution        =    1711.49346599 Ry

     convergence has been achieved in  10 iterations

     Forces acting on atoms (cartesian axes, Ry/au):

     atom    1 type  1   force =    -0.00356098   -0.00320756   -0.02357096
     atom    2 type  1   force =    -0.00025549    0.00183889    0.01435346
     atom    3 type  1   force =     0.00488770    0.00425780   -0.01993565
     atom    4 type  1   force =    -0.00292067   -0.00171717    0.00267677
     atom    5 type  1   force =     0.00686829    0.00301354   -0.00372689
     atom    6 type  1   force =     0.00325469    0.00350474   -0.00081717
     atom    7 type  1   force =    -0.00490751   -0.00364612    0.00192057
     atom    8 type  1   force =    -0.00129608   -0.00613277    0.01155770
     atom    9 type  1   force =    -0.01163431   -0.00514977   -0.01548938
     atom   10 type  1   force =     0.00584729    0.01058006    0.01103730
     atom   11 type  1   force =     0.00501439    0.00221012   -0.00169332
     atom   12 type  1   force =    -0.00518405   -0.00123090   -0.00028955
     atom   13 type  1   force =     0.00925221    0.00384249   -0.01361747
     atom   14 type  1   force =    -0.00759721   -0.00651203    0.02462284
     atom   15 type  1   force =     0.00626805    0.00417306   -0.01313928
     atom   16 type  1   force =    -0.00403631   -0.00582438    0.02611103

     Total force =     0.065103     Total SCF correction =     0.003800

     BFGS Geometry Optimization
     Energy error            =      0.0E+00 Ry
     Gradient error          =      2.6E-02 Ry/Bohr

     number of scf cycles    =   1
     number of bfgs steps    =   0

     energy             new  =   -2857.2851901041 Ry

     new trust radius        =       0.0270555219 bohr
     new conv_thr            =       0.0000010000 Ry


ATOMIC_POSITIONS (angstrom)
Ge            0.0141778801        2.8438197886        5.0020366464
Ge            1.4303943048        4.2651961583        6.4194020576
Ge            2.8468749682        0.0012505106        4.9792272084
Ge            4.2685954213        1.4232529250        6.4368869204
Ge           -0.0040390084       -0.0081012037        7.8367190959
Ge            1.4089124334        1.4204184052        9.2593047204
Ge            2.8472503212        2.8451353890        7.8332497480
Ge            4.2588128145        4.2660322287        9.2557362240
Ge            0.0106228962        2.8477068852       10.6856847492
Ge            1.4155727298        4.2473965648       12.0849056162
Ge            2.8280199887        0.0028857274       10.6714552968
Ge            4.2707628552        1.4178614987       12.0965707735
Ge           -0.0042837368       -0.0115794133       13.5115200693
Ge            1.4291856910        1.4322268005       14.9268531364
Ge            2.8309299149        2.8340590159       13.4940769572
Ge            4.2633554070        4.2486837318       14.9250198309



     Writing output data file ./out/ge.save/
     NEW-OLD atomic charge density approx. for the potential

     total cpu time spent up to now is       19.7 secs

     Self-consistent Calculation

     iteration #  1     ecut=    60.00 Ry     beta= 0.40
     Davidson diagonalization with overlap
     ethr =  1.00E-06,  avg # of iterations =  5.8

     Threshold (ethr) on eigenvalues was too large:
     Diagonalizing with lowered threshold

     Davidson diagonalization with overlap
     ethr =  7.81E-08,  avg # of iterations =  3.0

     total cpu time spent up to now is       24.0 secs

     total energy              =   -2857.28882533 Ry
     estimated scf accuracy    <       0.00017708 Ry

     iteration #  2     ecut=    60.00 Ry     beta= 0.40
     Davidson diagonalization with overlap
     ethr =  7.91E-08,  avg # of iterations =  2.8

     total cpu time spent up to now is       25.4 secs

     total energy              =   -2857.28876197 Ry
     estimated scf accuracy    <       0.00124302 Ry

     iteration #  3     ecut=    60.00 Ry     beta= 0.40
     Davidson diagonalization with overlap
     ethr =  7.91E-08,  avg # of iterations =  2.2

     total cpu time spent up to now is       26.7 secs

     total energy              =   -2857.28883544 Ry
     estimated scf accuracy    <       0.00051862 Ry

     iteration #  4     ecut=    60.00 Ry     beta= 0.40
     Davidson diagonalization with overlap
     ethr =  7.91E-08,  avg # of iterations =  2.0

     total cpu time spent up to now is       28.0 secs

     total energy              =   -2857.28886589 Ry
     estimated scf accuracy    <       0.00019519 Ry

     iteration #  5     ecut=    60.00 Ry     beta= 0.40
     Davidson diagonalization with overlap
     ethr =  7.91E-08,  avg # of iterations =  1.5

     total cpu time spent up to now is       29.2 secs

     total energy              =   -2857.28887985 Ry
     estimated scf accuracy    <       0.00000668 Ry

     iteration #  6     ecut=    60.00 Ry     beta= 0.40
     Davidson diagonalization with overlap
     ethr =  2.98E-09,  avg # of iterations =  2.5

     total cpu time spent up to now is       30.5 secs

     End of self-consistent calculation

          k = 0.0000 0.0000 0.0000 ( 33997 PWs)   bands (ev):

   -21.6907 -21.6761 -21.6704 -21.6645 -21.6537 -21.6449 -21.6258 -21.6193
   -21.6174 -21.6029 -21.5981 -21.5934 -21.5873 -21.5862 -21.5763 -21.5634
   -21.5597 -21.5565 -21.5538 -21.5461 -21.5310 -21.4967 -21.4935 -21.4816
   -21.4797 -21.4602 -21.4584 -21.4512 -21.4502 -21.4474 -21.4112 -21.4106
   -21.4054 -21.4033 -21.3906 -21.3892 -21.3890 -21.3748 -21.3738 -21.3682
   -21.3610 -21.3533 -21.3518 -21.3490 -21.3467 -21.3244 -21.3212 -21.3200
   -21.3176 -21.3170 -21.3120 -21.3104 -21.3092 -21.3060 -21.2795 -21.2757
   -21.2346 -21.2327 -21.2197 -21.2189 -21.1585 -21.1504 -21.1366 -21.1312
   -21.1307 -21.1298 -21.1262 -21.1217 -21.0970 -21.0912 -21.0849 -21.0783
   -21.0767 -21.0704 -21.0685 -21.0672 -21.0206 -21.0191 -21.0141 -21.0126
    -9.1234  -8.3993  -7.3371  -5.9976  -5.5038  -5.4829  -5.4770  -5.4699
    -5.2235  -5.2040  -4.4832  -4.4643  -4.3363  -2.4303  -0.3967  -0.2121
    -0.2076  -0.1779  -0.1728   0.3083   0.3114   0.5437   0.5726   1.2653
     1.3186   1.6463   2.1505   2.1597   2.2101   2.3966   2.5627   2.5680
     3.0377   3.5477   4.2075   4.2242   4.7136   4.8138   4.9065   4.9079
     4.9708   5.2696   5.3971   5.5791   5.5939   5.6387   5.8036   6.5856
     6.6079   6.6372   7.5595   7.7814   7.9981   8.0092

          k = 0.0000-0.5000 0.0000 ( 33994 PWs)   bands (ev):

   -21.6981 -21.6865 -21.6791 -21.6717 -21.6405 -21.6362 -21.6271 -21.6222
   -21.6088 -21.6041 -21.5999 -21.5968 -21.5816 -21.5778 -21.5709 -21.5658
   -21.5647 -21.5606 -21.5370 -21.5314 -21.5257 -21.5228 -21.4846 -21.4811
   -21.4788 -21.4773 -21.4581 -21.4562 -21.4410 -21.4380 -21.4084 -21.4071
   -21.4057 -21.4045 -21.4030 -21.3986 -21.3867 -21.3859 -21.3696 -21.3662
   -21.3544 -21.3537 -21.3515 -21.3492 -21.3375 -21.3343 -21.3162 -21.3150
   -21.3137 -21.3110 -21.3092 -21.3064 -21.3062 -21.3042 -21.3038 -21.3008
   -21.2219 -21.2214 -21.2190 -21.2176 -21.1467 -21.1458 -21.1424 -21.1398
   -21.1219 -21.1213 -21.1144 -21.1134 -21.0937 -21.0921 -21.0900 -21.0890
   -21.0887 -21.0857 -21.0852 -21.0812 -21.0104 -21.0094 -21.0083 -21.0070
    -8.1644  -8.1299  -7.5215  -7.4891  -6.6265  -6.6072  -5.6462  -5.5866
    -4.5566  -4.5335  -3.4475  -3.4322  -2.3818  -2.3605  -1.6197  -1.6004
    -0.5538  -0.5356  -0.5182  -0.5035   0.3086   0.3172   0.4932   0.5140
     1.2790   1.2896   1.5973   1.6241   2.6666   2.6767   2.7287   2.7305
     3.3998   3.4065   3.7788   3.7848   5.5437   5.5548   6.0137   6.0248
     6.5532   6.5767   6.8810   6.8914   7.1765   7.2021   7.5084   7.5153
     8.0377   8.0496   8.0553   8.0791   8.3433   8.3686

          k =-0.5000-0.5000 0.0000 ( 34004 PWs)   bands (ev):

   -21.6947 -21.6825 -21.6751 -21.6516 -21.6382 -21.6341 -21.6326 -21.6301
   -21.6268 -21.6176 -21.6096 -21.5979 -21.5904 -21.5896 -21.5849 -21.5603
   -21.5517 -21.5476 -21.5395 -21.5322 -21.5303 -21.5276 -21.5239 -21.4981
   -21.4847 -21.4423 -21.4394 -21.4382 -21.4357 -21.4346 -21.4173 -21.4161
   -21.4102 -21.3969 -21.3964 -21.3945 -21.3919 -21.3856 -21.3621 -21.3618
   -21.3547 -21.3511 -21.3497 -21.3483 -21.3384 -21.3359 -21.3300 -21.3216
   -21.3208 -21.3171 -21.3159 -21.3127 -21.3086 -21.3073 -21.2869 -21.2804
   -21.2389 -21.2375 -21.2227 -21.2203 -21.1597 -21.1509 -21.1453 -21.1378
   -21.1239 -21.1161 -21.1144 -21.1111 -21.0948 -21.0923 -21.0901 -21.0844
   -21.0724 -21.0712 -21.0690 -21.0654 -21.0232 -21.0223 -21.0169 -21.0154
    -7.4572  -7.4246  -7.3991  -7.3452  -7.2361  -6.9260  -6.8978  -5.0099
    -4.9215  -3.8270  -3.8133  -3.7932  -3.6284  -3.2588  -2.5701  -2.5486
     0.1111   0.1625   0.1690   0.2274   1.4285   1.6785   1.8551   1.8864
     1.9119   1.9674   2.0182   2.1033   2.1080   2.3093   2.3510   2.6195
     3.1398   3.1461   4.1633   4.7676   4.9665   4.9739   5.0941   5.3300
     5.3529   5.4862   5.5031   7.0947   7.0998   7.3164   7.4586   7.4777
     7.4911   7.5583   7.5785   7.6306   7.8730   8.0672

          k =-0.5000 0.0000 0.0000 ( 33994 PWs)   bands (ev):

   -21.6982 -21.6865 -21.6791 -21.6717 -21.6396 -21.6367 -21.6277 -21.6221
   -21.6085 -21.6040 -21.6008 -21.5963 -21.5808 -21.5786 -21.5707 -21.5662
   -21.5645 -21.5606 -21.5375 -21.5304 -21.5263 -21.5228 -21.4845 -21.4815
   -21.4786 -21.4773 -21.4583 -21.4560 -21.4409 -21.4381 -21.4084 -21.4068
   -21.4055 -21.4049 -21.4030 -21.3986 -21.3873 -21.3853 -21.3695 -21.3664
   -21.3545 -21.3536 -21.3514 -21.3493 -21.3372 -21.3346 -21.3163 -21.3148
   -21.3136 -21.3114 -21.3082 -21.3080 -21.3057 -21.3041 -21.3036 -21.3009
   -21.2222 -21.2203 -21.2198 -21.2176 -21.1469 -21.1455 -21.1421 -21.1401
   -21.1222 -21.1212 -21.1145 -21.1133 -21.0936 -21.0922 -21.0900 -21.0891
   -21.0886 -21.0855 -21.0851 -21.0814 -21.0101 -21.0097 -21.0081 -21.0071
    -8.1660  -8.1284  -7.5166  -7.4944  -6.6245  -6.6084  -5.6361  -5.5966
    -4.5561  -4.5344  -3.4567  -3.4234  -2.3761  -2.3658  -1.6182  -1.6013
    -0.5527  -0.5348  -0.5158  -0.5082   0.3041   0.3220   0.4955   0.5111
     1.2819   1.2869   1.5982   1.6233   2.6648   2.6790   2.7291   2.7299
     3.3981   3.4083   3.7762   3.7875   5.5360   5.5624   6.0130   6.0248
     6.5535   6.5766   6.8736   6.8997   7.1746   7.2033   7.5098   7.5138
     8.0380   8.0521   8.0573   8.0762   8.3356   8.3764

     the Fermi energy is     2.9174 ev

!    total energy              =   -2857.28888038 Ry
     estimated scf accuracy    <       0.00000086 Ry
     smearing contrib. (-TS)   =      -0.00189930 Ry
     internal energy E=F+TS    =   -2857.28698108 Ry

     The total energy is F=E-TS. E is the sum of the following terms:
     one-electron contribution =   -7931.83980326 Ry
     hartree contribution      =    4068.24123553 Ry
     xc contribution           =    -697.40233455 Ry
     ewald contribution        =    1703.71392121 Ry

     convergence has been achieved in   6 iterations

     Forces acting on atoms (cartesian axes, Ry/au):

     atom    1 type  1   force =    -0.00221261   -0.00195297   -0.01942565
     atom    2 type  1   force =     0.00029520    0.00115746    0.00856252
     atom    3 type  1   force =     0.00308691    0.00256788   -0.01662732
     atom    4 type  1   force =    -0.00252180   -0.00115821    0.00105131
     atom    5 type  1   force =     0.00435736    0.00209814   -0.00228531
     atom    6 type  1   force =     0.00279058    0.00213759   -0.00019288
     atom    7 type  1   force =    -0.00327042   -0.00255597    0.00100809
     atom    8 type  1   force =    -0.00128310   -0.00370704    0.00749024
     atom    9 type  1   force =    -0.00704550   -0.00315199   -0.01032610
     atom   10 type  1   force =     0.00327192    0.00664462    0.00638409
     atom   11 type  1   force =     0.00361148    0.00188673   -0.00186529
     atom   12 type  1   force =    -0.00375536   -0.00119598   -0.00017468
     atom   13 type  1   force =     0.00553839    0.00288126   -0.00807867
     atom   14 type  1   force =    -0.00499356   -0.00397708    0.02031280
     atom   15 type  1   force =     0.00420290    0.00191099   -0.00730780
     atom   16 type  1   force =    -0.00207238   -0.00358543    0.02147465

     Total force =     0.047969     Total SCF correction =     0.005300
     SCF correction compared to forces is large: reduce conv_thr to get better values
     Energy error            =      3.7E-03 Ry
     Gradient error          =      2.1E-02 Ry/Bohr

     number of scf cycles    =   2
     number of bfgs steps    =   1

     energy             old  =   -2857.2851901041 Ry
     energy             new  =   -2857.2888803752 Ry

     CASE: energy            _new < energy            _old

     new trust radius        =       0.0297610741 bohr
     new conv_thr            =       0.0000002147 Ry


ATOMIC_POSITIONS (angstrom)
Ge            0.0125589911        2.8423888860        4.9880602728
Ge            1.4305878140        4.2660422968        6.4256845814
Ge            2.8491310813        0.0031331876        4.9672715569
Ge            4.2667853184        1.4224100193        6.4376864301
Ge           -0.0008553242       -0.0065772455        7.8350455132
Ge            1.4109161587        1.4219843891        9.2591480030
Ge            2.8448684191        2.8432796622        7.8339965036
Ge            4.2578976718        4.2633147905        9.2612012718
Ge            0.0054588653        2.8453983196       10.6781642574
Ge            1.4179845673        4.2522546953       12.0896001004
Ge            2.8306378297        0.0042407527       10.6701307982
Ge            4.2680416436        1.4170077913       12.0964427091
Ge           -0.0002210711       -0.0094957447       13.5055902485
Ge            1.4255456012        1.4293134845       14.9414670408
Ge            2.8339897612        2.8354909868       13.4886876924
Ge            4.2618175532        4.2460587412       14.9404720708



     Writing output data file ./out/ge.save/
     NEW-OLD atomic charge density approx. for the potential

     total cpu time spent up to now is       30.9 secs

     Self-consistent Calculation

     iteration #  1     ecut=    60.00 Ry     beta= 0.40
     Davidson diagonalization with overlap
     ethr =  1.00E-06,  avg # of iterations =  6.5

     Threshold (ethr) on eigenvalues was too large:
     Diagonalizing with lowered threshold

     Davidson diagonalization with overlap
     ethr =  9.34E-08,  avg # of iterations =  2.8

     total cpu time spent up to now is       35.2 secs

     total energy              =   -2857.29149937 Ry
     estimated scf accuracy    <       0.00021031 Ry

     iteration #  2     ecut=    60.00 Ry     beta= 0.40
     Davidson diagonalization with overlap
     ethr =  9.39E-08,  avg # of iterations =  3.5

     total cpu time spent up to now is       36.7 secs

     total energy              =   -2857.29143197 Ry
     estimated scf accuracy    <       0.00151462 Ry

     iteration #  3     ecut=    60.00 Ry     beta= 0.40
     Davidson diagonalization with overlap
     ethr =  9.39E-08,  avg # of iterations =  2.5

     total cpu time spent up to now is       38.0 secs

     total energy              =   -2857.29153418 Ry
     estimated scf accuracy    <       0.00039563 Ry

     iteration #  4     ecut=    60.00 Ry     beta= 0.40
     Davidson diagonalization with overlap
     ethr =  9.39E-08,  avg # of iterations =  2.0

     total cpu time spent up to now is       39.2 secs

     total energy              =   -2857.29156059 Ry
     estimated scf accuracy    <       0.00021964 Ry

     iteration #  5     ecut=    60.00 Ry     beta= 0.40
     Davidson diagonalization with overlap
     ethr =  9.39E-08,  avg # of iterations =  1.0

     total cpu time spent up to now is       40.4 secs

     total energy              =   -2857.29157486 Ry
     estimated scf accuracy    <       0.00000683 Ry

     iteration #  6     ecut=    60.00 Ry     beta= 0.40
     Davidson diagonalization with overlap
     ethr =  3.05E-09,  avg # of iterations =  2.5

     total cpu time spent up to now is       41.7 secs

     total energy              =   -2857.29157568 Ry
     estimated scf accuracy    <       0.00000105 Ry

     iteration #  7     ecut=    60.00 Ry     beta= 0.40
     Davidson diagonalization with overlap
     ethr =  4.69E-10,  avg # of iterations =  2.8

     total cpu time spent up to now is       43.0 secs

     End of self-consistent calculation

          k = 0.0000 0.0000 0.0000 ( 33997 PWs)   bands (ev):

   -21.6779 -21.6681 -21.6638 -21.6606 -21.6454 -21.6402 -21.6222 -21.6126
   -21.6119 -21.5941 -21.5900 -21.5871 -21.5802 -21.5799 -21.5686 -21.5564
   -21.5551 -21.5516 -21.5444 -21.5399 -21.5240 -21.4909 -21.4889 -21.4769
   -21.4756 -21.4561 -21.4555 -21.4473 -21.4456 -21.4446 -21.4045 -21.4043
   -21.4003 -21.3989 -21.3853 -21.3847 -21.3843 -21.3707 -21.3700 -21.3642
   -21.3564 -21.3499 -21.3484 -21.3466 -21.3440 -21.3192 -21.3162 -21.3148
   -21.3088 -21.3080 -21.3064 -21.3061 -21.3048 -21.3045 -21.2667 -21.2644
   -21.2263 -21.2240 -21.2112 -21.2107 -21.1399 -21.1343 -21.1201 -21.1178
   -21.1158 -21.1148 -21.1138 -21.1081 -21.0806 -21.0763 -21.0687 -21.0642
   -21.0608 -21.0595 -21.0585 -21.0553 -21.0106 -21.0096 -21.0049 -21.0036
    -9.1146  -8.3755  -7.3091  -5.9636  -5.4898  -5.4799  -5.4746  -5.4705
    -5.1931  -5.1776  -4.4460  -4.4309  -4.3444  -2.4434  -0.4096  -0.1999
    -0.1970  -0.1718  -0.1675   0.3240   0.3271   0.5612   0.5710   1.3046
     1.3276   1.6367   2.1498   2.1549   2.2619   2.3990   2.5738   2.5781
     3.0809   3.5385   4.2150   4.2396   4.7185   4.8348   4.9103   4.9113
     4.9946   5.2808   5.3931   5.5800   5.5897   5.6454   5.8148   6.5821
     6.6026   6.6211   7.5532   7.7814   7.9663   7.9743

          k = 0.0000-0.5000 0.0000 ( 33994 PWs)   bands (ev):

   -21.6854 -21.6791 -21.6715 -21.6670 -21.6355 -21.6330 -21.6209 -21.6174
   -21.6000 -21.5964 -21.5930 -21.5904 -21.5739 -21.5716 -21.5623 -21.5592
   -21.5574 -21.5551 -21.5279 -21.5243 -21.5200 -21.5182 -21.4795 -21.4775
   -21.4743 -21.4738 -21.4536 -21.4526 -21.4370 -21.4353 -21.4020 -21.4013
   -21.4006 -21.3992 -21.3980 -21.3958 -21.3820 -21.3815 -21.3646 -21.3627
   -21.3509 -21.3498 -21.3485 -21.3467 -21.3322 -21.3305 -21.3129 -21.3115
   -21.3113 -21.3089 -21.3030 -21.3009 -21.2945 -21.2929 -21.2916 -21.2902
   -21.2136 -21.2134 -21.2108 -21.2105 -21.1327 -21.1318 -21.1289 -21.1275
   -21.1047 -21.1042 -21.0997 -21.0991 -21.0783 -21.0770 -21.0745 -21.0741
   -21.0727 -21.0724 -21.0706 -21.0676 -21.0017 -21.0007 -21.0000 -20.9987
    -8.1505  -8.1266  -7.4945  -7.4726  -6.5984  -6.5834  -5.6014  -5.5683
    -4.5442  -4.5337  -3.4399  -3.4327  -2.3712  -2.3586  -1.6092  -1.5951
    -0.5397  -0.5281  -0.5066  -0.4971   0.3380   0.3449   0.5113   0.5243
     1.3019   1.3081   1.6185   1.6369   2.6542   2.6644   2.7191   2.7208
     3.4084   3.4159   3.7853   3.7857   5.5478   5.5492   6.0234   6.0328
     6.5470   6.5602   6.8687   6.8742   7.1613   7.1786   7.4927   7.5001
     8.0453   8.0509   8.0622   8.0839   8.3606   8.3767

          k =-0.5000-0.5000 0.0000 ( 34004 PWs)   bands (ev):

   -21.6817 -21.6754 -21.6697 -21.6435 -21.6312 -21.6300 -21.6271 -21.6260
   -21.6233 -21.6086 -21.6028 -21.5886 -21.5841 -21.5820 -21.5785 -21.5510
   -21.5450 -21.5383 -21.5340 -21.5277 -21.5263 -21.5251 -21.5168 -21.4919
   -21.4818 -21.4384 -21.4341 -21.4334 -21.4323 -21.4318 -21.4105 -21.4097
   -21.4058 -21.3933 -21.3921 -21.3907 -21.3876 -21.3812 -21.3577 -21.3575
   -21.3513 -21.3488 -21.3461 -21.3453 -21.3318 -21.3310 -21.3266 -21.3179
   -21.3131 -21.3096 -21.3076 -21.3072 -21.3048 -21.3039 -21.2745 -21.2688
   -21.2294 -21.2286 -21.2144 -21.2116 -21.1418 -21.1351 -21.1278 -21.1227
   -21.1076 -21.1027 -21.1025 -21.1001 -21.0787 -21.0758 -21.0747 -21.0706
   -21.0627 -21.0599 -21.0554 -21.0508 -21.0141 -21.0132 -21.0075 -21.0063
    -7.4393  -7.4164  -7.4029  -7.3392  -7.2267  -6.8782  -6.8565  -4.9733
    -4.8874  -3.8219  -3.8166  -3.7752  -3.6089  -3.2182  -2.5876  -2.5749
     0.1126   0.1738   0.1777   0.2410   1.4440   1.6718   1.8761   1.8910
     1.9072   1.9660   2.0183   2.0995   2.1036   2.3788   2.4100   2.6219
     3.1208   3.1249   4.1553   4.7599   4.9712   4.9749   5.0938   5.3484
     5.3699   5.5263   5.5381   7.0741   7.0768   7.2777   7.4563   7.4671
     7.5221   7.5937   7.6006   7.6426   7.8325   8.1020

          k =-0.5000 0.0000 0.0000 ( 33994 PWs)   bands (ev):

   -21.6854 -21.6792 -21.6715 -21.6669 -21.6352 -21.6332 -21.6210 -21.6174
   -21.5997 -21.5962 -21.5937 -21.5901 -21.5734 -21.5721 -21.5624 -21.5593
   -21.5573 -21.5551 -21.5282 -21.5238 -21.5203 -21.5182 -21.4795 -21.4777
   -21.4741 -21.4737 -21.4539 -21.4524 -21.4371 -21.4353 -21.4017 -21.4014
   -21.4003 -21.3995 -21.3980 -21.3958 -21.3822 -21.3813 -21.3645 -21.3628
   -21.3509 -21.3497 -21.3485 -21.3468 -21.3320 -21.3308 -21.3129 -21.3115
   -21.3112 -21.3090 -21.3029 -21.3010 -21.2945 -21.2930 -21.2916 -21.2901
   -21.2140 -21.2124 -21.2116 -21.2102 -21.1326 -21.1318 -21.1287 -21.1277
   -21.1048 -21.1042 -21.0998 -21.0990 -21.0781 -21.0772 -21.0745 -21.0744
   -21.0725 -21.0722 -21.0705 -21.0677 -21.0015 -21.0010 -20.9998 -20.9988
    -8.1511  -8.1260  -7.4912  -7.4761  -6.5952  -6.5863  -5.5959  -5.5738
    -4.5448  -4.5332  -3.4446  -3.4280  -2.3683  -2.3614  -1.6076  -1.5964
    -0.5385  -0.5279  -0.5050  -0.5001   0.3352   0.3479   0.5134   0.5220
     1.3033   1.3068   1.6194   1.6360   2.6526   2.6662   2.7191   2.7207
     3.4066   3.4177   3.7799   3.7911   5.5437   5.5534   6.0221   6.0338
     6.5479   6.5595   6.8610   6.8825   7.1607   7.1780   7.4948   7.4983
     8.0410   8.0558   8.0637   8.0826   8.3534   8.3839

     the Fermi energy is     2.9218 ev

!    total energy              =   -2857.29157581 Ry
     estimated scf accuracy    <       0.00000020 Ry
     smearing contrib. (-TS)   =      -0.00145547 Ry
     internal energy E=F+TS    =   -2857.29012035 Ry

     The total energy is F=E-TS. E is the sum of the following terms:
     one-electron contribution =   -7912.25860119 Ry
     hartree contribution      =    4058.50447427 Ry
     xc contribution           =    -697.38342264 Ry
     ewald contribution        =    1693.84742921 Ry

     convergence has been achieved in   7 iterations

     Forces acting on atoms (cartesian axes, Ry/au):

     atom    1 type  1   force =    -0.00117970   -0.00102382   -0.01576717
     atom    2 type  1   force =     0.00042771    0.00036084    0.00286528
     atom    3 type  1   force =     0.00166336    0.00124491   -0.01368268
     atom    4 type  1   force =    -0.00178830   -0.00049237   -0.00120178
     atom    5 type  1   force =     0.00229267    0.00142101   -0.00052589
     atom    6 type  1   force =     0.00210118    0.00114471    0.00039741
     atom    7 type  1   force =    -0.00185881   -0.00159193    0.00088485
     atom    8 type  1   force =    -0.00116281   -0.00184695    0.00415992
     atom    9 type  1   force =    -0.00352188   -0.00188587   -0.00571939
     atom   10 type  1   force =     0.00159530    0.00361175    0.00239481
     atom   11 type  1   force =     0.00231742    0.00140536   -0.00140097
     atom   12 type  1   force =    -0.00231514   -0.00092000   -0.00048534
     atom   13 type  1   force =     0.00257021    0.00207805   -0.00300770
     atom   14 type  1   force =    -0.00311192   -0.00209862    0.01617640
     atom   15 type  1   force =     0.00263523    0.00056205   -0.00209400
     atom   16 type  1   force =    -0.00066453   -0.00196912    0.01700625

     Total force =     0.034423     Total SCF correction =     0.002293
     Energy error            =      2.7E-03 Ry
     Gradient error          =      1.7E-02 Ry/Bohr

     number of scf cycles    =   3
     number of bfgs steps    =   2

     energy             old  =   -2857.2888803752 Ry
     energy             new  =   -2857.2915758137 Ry

     CASE: energy            _new < energy            _old

     new trust radius        =       0.0446416111 bohr
     new conv_thr            =       0.0000001701 Ry


ATOMIC_POSITIONS (angstrom)
Ge            0.0106301501        2.8406976610        4.9665593860
Ge            1.4310432153        4.2668012010        6.4315535335
Ge            2.8518320488        0.0052624077        4.9487080027
Ge            4.2642564651        1.4215342445        6.4369830189
Ge            0.0029010724       -0.0044871833        7.8337193087
Ge            1.4138348626        1.4238582966        9.2594199118
Ge            2.8419369850        2.8408703831        7.8352374237
Ge            4.2563827377        4.2601940445        9.2678486259
Ge           -0.0004817124        2.8424451664       10.6690538072
Ge            1.4207430582        4.2581040553       12.0942552775
Ge            2.8340959907        0.0062001706       10.6682252147
Ge            4.2645398914        1.4157523102       12.0959101228
Ge            0.0042661136       -0.0065287336       13.4997518732
Ge            1.4207956631        1.4258579191       14.9636468829
Ge            2.8379921473        2.8368102402       13.4839415028
Ge            4.2603761919        4.2428728293       14.9638351580



     Writing output data file ./out/ge.save/
     NEW-OLD atomic charge density approx. for the potential

     negative rho (up, down):  5.375E-08 0.000E+00

     total cpu time spent up to now is       43.5 secs

     Self-consistent Calculation

     iteration #  1     ecut=    60.00 Ry     beta= 0.40
     Davidson diagonalization with overlap
     ethr =  1.00E-06,  avg # of iterations =  7.5

     total cpu time spent up to now is       46.7 secs

     total energy              =   -2857.29370905 Ry
     estimated scf accuracy    <       0.00048532 Ry

     iteration #  2     ecut=    60.00 Ry     beta= 0.40
     Davidson diagonalization with overlap
     ethr =  2.17E-07,  avg # of iterations =  6.2

     total cpu time spent up to now is       48.4 secs

     total energy              =   -2857.29360208 Ry
     estimated scf accuracy    <       0.00305190 Ry

     iteration #  3     ecut=    60.00 Ry     beta= 0.40
     Davidson diagonalization with overlap
     ethr =  2.17E-07,  avg # of iterations =  2.5

     total cpu time spent up to now is       49.8 secs

     total energy              =   -2857.29384772 Ry
     estimated scf accuracy    <       0.00036146 Ry

     iteration #  4     ecut=    60.00 Ry     beta= 0.40
     Davidson diagonalization with overlap
     ethr =  1.61E-07,  avg # of iterations =  2.0

     total cpu time spent up to now is       51.0 secs

     total energy              =   -2857.29385508 Ry
     estimated scf accuracy    <       0.00089795 Ry

     iteration #  5     ecut=    60.00 Ry     beta= 0.40
     Davidson diagonalization with overlap
     ethr =  1.61E-07,  avg # of iterations =  1.0

     total cpu time spent up to now is       52.2 secs

     total energy              =   -2857.29390592 Ry
     estimated scf accuracy    <       0.00001464 Ry

     iteration #  6     ecut=    60.00 Ry     beta= 0.40
     Davidson diagonalization with overlap
     ethr =  6.54E-09,  avg # of iterations =  2.0

     total cpu time spent up to now is       53.5 secs

     total energy              =   -2857.29390726 Ry
     estimated scf accuracy    <       0.00000183 Ry

     iteration #  7     ecut=    60.00 Ry     beta= 0.40
     Davidson diagonalization with overlap
     ethr =  8.17E-10,  avg # of iterations =  3.2

     total cpu time spent up to now is       54.8 secs

     total energy              =   -2857.29390760 Ry
     estimated scf accuracy    <       0.00000056 Ry

     iteration #  8     ecut=    60.00 Ry     beta= 0.40
     Davidson diagonalization with overlap
     ethr =  2.50E-10,  avg # of iterations =  2.0

     total cpu time spent up to now is       56.1 secs

     End of self-consistent calculation

          k = 0.0000 0.0000 0.0000 ( 33997 PWs)   bands (ev):

   -21.6607 -21.6539 -21.6508 -21.6485 -21.6309 -21.6266 -21.6142 -21.6010
   -21.5988 -21.5785 -21.5761 -21.5719 -21.5661 -21.5648 -21.5537 -21.5444
   -21.5440 -21.5400 -21.5298 -21.5242 -21.5093 -21.4793 -21.4763 -21.4657
   -21.4651 -21.4463 -21.4462 -21.4368 -21.4359 -21.4348 -21.3967 -21.3958
   -21.3936 -21.3931 -21.3747 -21.3737 -21.3729 -21.3620 -21.3589 -21.3544
   -21.3452 -21.3445 -21.3434 -21.3430 -21.3392 -21.3113 -21.3110 -21.3098
   -21.3047 -21.3029 -21.2966 -21.2961 -21.2910 -21.2872 -21.2511 -21.2490
   -21.2159 -21.2128 -21.2011 -21.1999 -21.1150 -21.1094 -21.1003 -21.0976
   -21.0957 -21.0925 -21.0907 -21.0852 -21.0583 -21.0527 -21.0466 -21.0455
   -21.0420 -21.0414 -21.0386 -21.0325 -20.9970 -20.9938 -20.9913 -20.9878
    -9.0981  -8.3368  -7.2677  -5.9200  -5.4770  -5.4719  -5.4662  -5.4537
    -5.1494  -5.1344  -4.3933  -4.3843  -4.3505  -2.4592  -0.4286  -0.1800
    -0.1777  -0.1586  -0.1546   0.3492   0.3527   0.5756   0.5888   1.3499
     1.3625   1.6235   2.1498   2.1515   2.3346   2.4095   2.5899   2.5937
     3.1402   3.5261   4.2259   4.2656   4.7268   4.8597   4.9141   4.9153
     5.0324   5.2973   5.3899   5.5838   5.5873   5.6581   5.8337   6.5722
     6.5889   6.6036   7.5417   7.7825   7.9235   7.9284

          k = 0.0000-0.5000 0.0000 ( 33994 PWs)   bands (ev):

   -21.6673 -21.6662 -21.6558 -21.6548 -21.6258 -21.6246 -21.6073 -21.6062
   -21.5851 -21.5827 -21.5778 -21.5756 -21.5592 -21.5585 -21.5473 -21.5464
   -21.5420 -21.5411 -21.5121 -21.5110 -21.5067 -21.5060 -21.4686 -21.4679
   -21.4638 -21.4630 -21.4431 -21.4423 -21.4271 -21.4270 -21.3948 -21.3934
   -21.3930 -21.3925 -21.3872 -21.3871 -21.3712 -21.3709 -21.3534 -21.3531
   -21.3453 -21.3447 -21.3436 -21.3429 -21.3208 -21.3207 -21.3086 -21.3078
   -21.3075 -21.3070 -21.2919 -21.2919 -21.2776 -21.2765 -21.2743 -21.2740
   -21.2041 -21.2033 -21.2013 -21.2011 -21.1132 -21.1123 -21.1077 -21.1072
   -21.0818 -21.0814 -21.0767 -21.0765 -21.0566 -21.0555 -21.0524 -21.0509
   -21.0504 -21.0502 -21.0469 -21.0453 -20.9887 -20.9881 -20.9856 -20.9847
    -8.1276  -8.1174  -7.4519  -7.4434  -6.5569  -6.5476  -5.5424  -5.5400
    -4.5278  -4.5242  -3.4294  -3.4266  -2.3560  -2.3522  -1.5916  -1.5847
    -0.5173  -0.5133  -0.4871  -0.4815   0.3830   0.3884   0.5395   0.5441
     1.3355   1.3372   1.6503   1.6581   2.6381   2.6479   2.7076   2.7092
     3.4209   3.4304   3.7863   3.7940   5.5414   5.5507   6.0387   6.0462
     6.5359   6.5422   6.8472   6.8475   7.1400   7.1500   7.4685   7.4774
     8.0516   8.0520   8.0883   8.0947   8.3830   8.3879

          k =-0.5000-0.5000 0.0000 ( 34004 PWs)   bands (ev):

   -21.6642 -21.6601 -21.6578 -21.6287 -21.6232 -21.6192 -21.6172 -21.6121
   -21.6093 -21.5941 -21.5872 -21.5738 -21.5696 -21.5681 -21.5630 -21.5361
   -21.5294 -21.5239 -21.5198 -21.5179 -21.5174 -21.5149 -21.5024 -21.4781
   -21.4732 -21.4283 -21.4236 -21.4230 -21.4217 -21.4214 -21.4021 -21.4013
   -21.3950 -21.3860 -21.3857 -21.3848 -21.3772 -21.3703 -21.3502 -21.3497
   -21.3463 -21.3452 -21.3383 -21.3372 -21.3203 -21.3199 -21.3165 -21.3132
   -21.3094 -21.3059 -21.3057 -21.2953 -21.2902 -21.2874 -21.2583 -21.2533
   -21.2183 -21.2167 -21.2039 -21.2008 -21.1177 -21.1109 -21.1044 -21.0990
   -21.0858 -21.0853 -21.0816 -21.0801 -21.0567 -21.0531 -21.0508 -21.0488
   -21.0480 -21.0440 -21.0325 -21.0274 -21.0006 -20.9973 -20.9943 -20.9912
    -7.4259  -7.4020  -7.3926  -7.3214  -7.2049  -6.8107  -6.7957  -4.9225
    -4.8401  -3.8220  -3.8190  -3.7310  -3.5803  -3.1637  -2.6067  -2.6053
     0.1186   0.1909   0.1941   0.2610   1.4630   1.6643   1.8740   1.9137
     1.9251   1.9746   2.0303   2.0939   2.0976   2.4761   2.4941   2.6251
     3.0958   3.0988   4.1462   4.7516   4.9771   4.9780   5.0993   5.3741
     5.3939   5.5803   5.5865   7.0479   7.0510   7.2252   7.4582   7.4601
     7.5594   7.6299   7.6338   7.6708   7.7769   8.1449

          k =-0.5000 0.0000 0.0000 ( 33994 PWs)   bands (ev):

   -21.6673 -21.6662 -21.6559 -21.6547 -21.6258 -21.6246 -21.6071 -21.6064
   -21.5850 -21.5827 -21.5779 -21.5755 -21.5591 -21.5586 -21.5475 -21.5463
   -21.5421 -21.5411 -21.5123 -21.5108 -21.5067 -21.5061 -21.4687 -21.4679
   -21.4636 -21.4631 -21.4431 -21.4423 -21.4271 -21.4270 -21.3945 -21.3934
   -21.3931 -21.3927 -21.3872 -21.3871 -21.3711 -21.3709 -21.3533 -21.3532
   -21.3453 -21.3447 -21.3436 -21.3430 -21.3210 -21.3206 -21.3086 -21.3079
   -21.3075 -21.3070 -21.2920 -21.2918 -21.2775 -21.2765 -21.2743 -21.2740
   -21.2040 -21.2033 -21.2014 -21.2010 -21.1129 -21.1126 -21.1078 -21.1071
   -21.0817 -21.0815 -21.0767 -21.0764 -21.0565 -21.0557 -21.0525 -21.0510
   -21.0503 -21.0501 -21.0468 -21.0454 -20.9887 -20.9881 -20.9856 -20.9847
    -8.1270  -8.1181  -7.4515  -7.4439  -6.5553  -6.5492  -5.5422  -5.5402
    -4.5267  -4.5253  -3.4303  -3.4256  -2.3568  -2.3514  -1.5898  -1.5863
    -0.5164  -0.5137  -0.4863  -0.4828   0.3818   0.3896   0.5416   0.5421
     1.3347   1.3381   1.6509   1.6576   2.6365   2.6493   2.7071   2.7099
     3.4190   3.4322   3.7835   3.7970   5.5415   5.5507   6.0370   6.0477
     6.5363   6.5420   6.8391   6.8561   7.1412   7.1475   7.4715   7.4748
     8.0437   8.0600   8.0871   8.0962   8.3753   8.3957

     the Fermi energy is     2.9170 ev

!    total energy              =   -2857.29390765 Ry
     estimated scf accuracy    <       0.00000004 Ry
     smearing contrib. (-TS)   =      -0.00124336 Ry
     internal energy E=F+TS    =   -2857.29266429 Ry

     The total energy is F=E-TS. E is the sum of the following terms:
     one-electron contribution =   -7878.91089436 Ry
     hartree contribution      =    4041.93525707 Ry
     xc contribution           =    -697.35566000 Ry
     ewald contribution        =    1677.03863301 Ry

     convergence has been achieved in   8 iterations

     Forces acting on atoms (cartesian axes, Ry/au):

     atom    1 type  1   force =    -0.00005428    0.00000940   -0.00986530
     atom    2 type  1   force =     0.00055578   -0.00038880   -0.00434861
     atom    3 type  1   force =     0.00002561   -0.00028579   -0.00879278
     atom    4 type  1   force =    -0.00077444    0.00020864   -0.00436253
     atom    5 type  1   force =    -0.00015837    0.00059924    0.00093514
     atom    6 type  1   force =     0.00111570   -0.00004896    0.00022703
     atom    7 type  1   force =    -0.00014909   -0.00035667    0.00029105
     atom    8 type  1   force =    -0.00090098    0.00032559   -0.00072087
     atom    9 type  1   force =     0.00046685   -0.00059052   -0.00001087
     atom   10 type  1   force =    -0.00010876   -0.00005090   -0.00157897
     atom   11 type  1   force =     0.00056197    0.00062363   -0.00060502
     atom   12 type  1   force =    -0.00043322   -0.00043093   -0.00059497
     atom   13 type  1   force =    -0.00065308    0.00126862    0.00392625
     atom   14 type  1   force =    -0.00101608    0.00000450    0.01014167
     atom   15 type  1   force =     0.00072111   -0.00057966    0.00489636
     atom   16 type  1   force =     0.00080127   -0.00030740    0.01046241

     Total force =     0.021891     Total SCF correction =     0.000664
     Energy error            =      2.3E-03 Ry
     Gradient error          =      1.0E-02 Ry/Bohr

     number of scf cycles    =   4
     number of bfgs steps    =   3

     energy             old  =   -2857.2915758137 Ry
     energy             new  =   -2857.2939076476 Ry

     CASE: energy            _new < energy            _old

     new trust radius        =       0.0501049609 bohr
     new conv_thr            =       0.0000001046 Ry


ATOMIC_POSITIONS (angstrom)
Ge            0.0090380017        2.8393466673        4.9421649941
Ge            1.4318014424        4.2671079471        6.4325575555
Ge            2.8539984281        0.0067306402        4.9274397695
Ge            4.2617231097        1.4210117983        6.4327890110
Ge            0.0057376532       -0.0023620328        7.8333436841
Ge            1.4169503201        1.4253077560        9.2596433299
Ge            2.8395219155        2.8387149811        7.8364197167
Ge            4.2545129289        4.2579692377        9.2723321886
Ge           -0.0048627387        2.8395687026       10.6619493146
Ge            1.4229368612        4.2626841631       12.0968178412
Ge            2.8372065095        0.0081716983       10.6663587852
Ge            4.2615001224        1.4144812414       12.0950310974
Ge            0.0073587489       -0.0031598733       13.4984894733
Ge            1.4161932145        1.4230895035       14.9888477557
Ge            2.8417197710        2.8375403987       13.4842726143
Ge            4.2598085924        4.2400421834       14.9901919194



     Writing output data file ./out/ge.save/
     NEW-OLD atomic charge density approx. for the potential

     negative rho (up, down):  9.629E-08 0.000E+00

     total cpu time spent up to now is       56.5 secs

     Self-consistent Calculation

     iteration #  1     ecut=    60.00 Ry     beta= 0.40
     Davidson diagonalization with overlap
     ethr =  1.00E-06,  avg # of iterations =  6.0

     total cpu time spent up to now is       59.7 secs

     total energy              =   -2857.29488707 Ry
     estimated scf accuracy    <       0.00050428 Ry

     iteration #  2     ecut=    60.00 Ry     beta= 0.40
     Davidson diagonalization with overlap
     ethr =  2.25E-07,  avg # of iterations =  5.8

     total cpu time spent up to now is       61.4 secs

     total energy              =   -2857.29475977 Ry
     estimated scf accuracy    <       0.00319683 Ry

     iteration #  3     ecut=    60.00 Ry     beta= 0.40
     Davidson diagonalization with overlap
     ethr =  2.25E-07,  avg # of iterations =  2.2

     total cpu time spent up to now is       62.7 secs

     total energy              =   -2857.29499418 Ry
     estimated scf accuracy    <       0.00061818 Ry

     iteration #  4     ecut=    60.00 Ry     beta= 0.40
     Davidson diagonalization with overlap
     ethr =  2.25E-07,  avg # of iterations =  1.2

     total cpu time spent up to now is       63.9 secs

     total energy              =   -2857.29502644 Ry
     estimated scf accuracy    <       0.00084725 Ry

     iteration #  5     ecut=    60.00 Ry     beta= 0.40
     Davidson diagonalization with overlap
     ethr =  2.25E-07,  avg # of iterations =  1.0

     total cpu time spent up to now is       65.1 secs

     total energy              =   -2857.29507601 Ry
     estimated scf accuracy    <       0.00001402 Ry

     iteration #  6     ecut=    60.00 Ry     beta= 0.40
     Davidson diagonalization with overlap
     ethr =  6.26E-09,  avg # of iterations =  2.0

     total cpu time spent up to now is       66.3 secs

     total energy              =   -2857.29507753 Ry
     estimated scf accuracy    <       0.00000138 Ry

     iteration #  7     ecut=    60.00 Ry     beta= 0.40
     Davidson diagonalization with overlap
     ethr =  6.17E-10,  avg # of iterations =  3.2

     total cpu time spent up to now is       67.7 secs

     total energy              =   -2857.29507768 Ry
     estimated scf accuracy    <       0.00000057 Ry

     iteration #  8     ecut=    60.00 Ry     beta= 0.40
     Davidson diagonalization with overlap
     ethr =  2.55E-10,  avg # of iterations =  2.0

     total cpu time spent up to now is       69.0 secs

     End of self-consistent calculation

          k = 0.0000 0.0000 0.0000 ( 33997 PWs)   bands (ev):

   -21.6449 -21.6389 -21.6375 -21.6317 -21.6132 -21.6103 -21.6050 -21.5874
   -21.5832 -21.5586 -21.5580 -21.5531 -21.5482 -21.5463 -21.5360 -21.5308
   -21.5301 -21.5256 -21.5107 -21.5054 -21.4914 -21.4638 -21.4605 -21.4520
   -21.4510 -21.4343 -21.4340 -21.4242 -21.4232 -21.4228 -21.3911 -21.3899
   -21.3885 -21.3866 -21.3625 -21.3608 -21.3589 -21.3516 -21.3462 -21.3440
   -21.3408 -21.3398 -21.3380 -21.3335 -21.3316 -21.3097 -21.3071 -21.3051
   -21.3011 -21.2981 -21.2848 -21.2839 -21.2759 -21.2707 -21.2385 -21.2353
   -21.2075 -21.2034 -21.1937 -21.1905 -21.0892 -21.0837 -21.0801 -21.0743
   -21.0739 -21.0689 -21.0661 -21.0607 -21.0341 -21.0282 -21.0277 -21.0230
   -21.0226 -21.0170 -21.0153 -21.0084 -20.9823 -20.9765 -20.9748 -20.9697
    -9.0768  -8.2909  -7.2243  -5.8835  -5.4710  -5.4631  -5.4401  -5.4296
    -5.0997  -5.0853  -4.3526  -4.3425  -4.3387  -2.4734  -0.4507  -0.1571
    -0.1547  -0.1416  -0.1378   0.3775   0.3810   0.5894   0.6183   1.3863
     1.4222   1.6083   2.1495   2.1555   2.4045   2.4299   2.6060   2.6100
     3.1930   3.5131   4.2425   4.2927   4.7359   4.8772   4.9138   4.9158
     5.0758   5.3134   5.3894   5.5862   5.5887   5.6711   5.8535   6.5565
     6.5652   6.5890   7.5286   7.7815   7.8823   7.8878

          k = 0.0000-0.5000 0.0000 ( 33994 PWs)   bands (ev):

   -21.6520 -21.6489 -21.6407 -21.6386 -21.6148 -21.6135 -21.5923 -21.5912
   -21.5658 -21.5655 -21.5584 -21.5574 -21.5423 -21.5413 -21.5313 -21.5293
   -21.5241 -21.5232 -21.4948 -21.4930 -21.4909 -21.4901 -21.4566 -21.4560
   -21.4497 -21.4484 -21.4294 -21.4287 -21.4169 -21.4155 -21.3900 -21.3883
   -21.3869 -21.3854 -21.3762 -21.3744 -21.3587 -21.3581 -21.3432 -21.3426
   -21.3405 -21.3402 -21.3376 -21.3371 -21.3105 -21.3097 -21.3064 -21.3057
   -21.3036 -21.3022 -21.2817 -21.2799 -21.2626 -21.2620 -21.2591 -21.2580
   -21.1966 -21.1963 -21.1936 -21.1922 -21.0916 -21.0906 -21.0852 -21.0847
   -21.0580 -21.0575 -21.0531 -21.0526 -21.0329 -21.0319 -21.0286 -21.0267
   -21.0262 -21.0259 -21.0217 -21.0215 -20.9738 -20.9737 -20.9687 -20.9684
    -8.1041  -8.1002  -7.4076  -7.4021  -6.5127  -6.5097  -5.5119  -5.4902
    -4.5144  -4.5034  -3.4205  -3.4125  -2.3456  -2.3365  -1.5720  -1.5711
    -0.4955  -0.4898  -0.4652  -0.4599   0.4313   0.4367   0.5658   0.5736
     1.3660   1.3702   1.6802   1.6812   2.6235   2.6327   2.6985   2.6996
     3.4327   3.4457   3.7855   3.8005   5.5322   5.5481   6.0533   6.0590
     6.5190   6.5298   6.8151   6.8201   7.1183   7.1287   7.4425   7.4522
     8.0610   8.0656   8.1076   8.1148   8.3947   8.4039

          k =-0.5000-0.5000 0.0000 ( 34004 PWs)   bands (ev):

   -21.6478 -21.6445 -21.6416 -21.6144 -21.6117 -21.6075 -21.6065 -21.5949
   -21.5904 -21.5759 -21.5682 -21.5562 -21.5528 -21.5492 -21.5436 -21.5172
   -21.5107 -21.5085 -21.5067 -21.5036 -21.5034 -21.4996 -21.4839 -21.4624
   -21.4604 -21.4152 -21.4110 -21.4098 -21.4093 -21.4084 -21.3964 -21.3935
   -21.3830 -21.3811 -21.3800 -21.3752 -21.3656 -21.3567 -21.3455 -21.3436
   -21.3428 -21.3405 -21.3272 -21.3256 -21.3105 -21.3096 -21.3086 -21.3066
   -21.3047 -21.3034 -21.3018 -21.2852 -21.2746 -21.2711 -21.2441 -21.2398
   -21.2097 -21.2064 -21.1954 -21.1916 -21.0925 -21.0857 -21.0799 -21.0748
   -21.0662 -21.0617 -21.0612 -21.0563 -21.0327 -21.0318 -21.0288 -21.0257
   -21.0255 -21.0237 -21.0084 -21.0029 -20.9843 -20.9795 -20.9791 -20.9746
    -7.4232  -7.3807  -7.3746  -7.2900  -7.1713  -6.7419  -6.7335  -4.8735
    -4.7949  -3.8166  -3.8080  -3.6911  -3.5549  -3.1171  -2.6272  -2.6166
     0.1282   0.2079   0.2129   0.2791   1.4757   1.6597   1.8656   1.9430
     1.9467   2.0004   2.0588   2.0861   2.0911   2.5709   2.5759   2.6263
     3.0726   3.0770   4.1391   4.7449   4.9795   4.9811   5.1130   5.3989
     5.4171   5.6299   5.6319   7.0278   7.0323   7.1771   7.4630   7.4676
     7.5852   7.6504   7.6573   7.7043   7.7243   8.1755

          k =-0.5000 0.0000 0.0000 ( 33994 PWs)   bands (ev):

   -21.6519 -21.6491 -21.6405 -21.6386 -21.6145 -21.6138 -21.5928 -21.5908
   -21.5664 -21.5649 -21.5581 -21.5577 -21.5423 -21.5414 -21.5308 -21.5298
   -21.5238 -21.5234 -21.4948 -21.4930 -21.4910 -21.4900 -21.4565 -21.4561
   -21.4496 -21.4485 -21.4294 -21.4287 -21.4169 -21.4156 -21.3897 -21.3886
   -21.3870 -21.3854 -21.3762 -21.3743 -21.3588 -21.3579 -21.3430 -21.3428
   -21.3404 -21.3403 -21.3374 -21.3373 -21.3106 -21.3096 -21.3064 -21.3057
   -21.3038 -21.3020 -21.2817 -21.2799 -21.2626 -21.2620 -21.2591 -21.2580
   -21.1966 -21.1963 -21.1936 -21.1922 -21.0913 -21.0909 -21.0853 -21.0846
   -21.0579 -21.0577 -21.0531 -21.0527 -21.0328 -21.0320 -21.0287 -21.0266
   -21.0262 -21.0259 -21.0217 -21.0215 -20.9738 -20.9737 -20.9687 -20.9684
    -8.1058  -8.0986  -7.4085  -7.4012  -6.5160  -6.5063  -5.5079  -5.4942
    -4.5130  -4.5048  -3.4246  -3.4086  -2.3446  -2.3373  -1.5738  -1.5691
    -0.4943  -0.4914  -0.4641  -0.4607   0.4312   0.4368   0.5663   0.5731
     1.3657   1.3706   1.6792   1.6821   2.6221   2.6338   2.6976   2.7008
     3.4312   3.4471   3.7846   3.8017   5.5290   5.5513   6.0518   6.0603
     6.5183   6.5307   6.8107   6.8250   7.1186   7.1276   7.4462   7.4488
     8.0548   8.0720   8.1047   8.1177   8.3900   8.4085

     the Fermi energy is     2.9046 ev

!    total energy              =   -2857.29507774 Ry
     estimated scf accuracy    <       0.00000005 Ry
     smearing contrib. (-TS)   =      -0.00132789 Ry
     internal energy E=F+TS    =   -2857.29374985 Ry

     The total energy is F=E-TS. E is the sum of the following terms:
     one-electron contribution =   -7834.72380487 Ry
     hartree contribution      =    4019.95979623 Ry
     xc contribution           =    -697.32467631 Ry
     ewald contribution        =    1654.79493510 Ry

     convergence has been achieved in   8 iterations

     Forces acting on atoms (cartesian axes, Ry/au):

     atom    1 type  1   force =     0.00073041    0.00073637   -0.00389533
     atom    2 type  1   force =     0.00037896   -0.00079381   -0.00988826
     atom    3 type  1   force =    -0.00118485   -0.00140567   -0.00379337
     atom    4 type  1   force =     0.00023778    0.00065937   -0.00705814
     atom    5 type  1   force =    -0.00190884   -0.00014847    0.00101060
     atom    6 type  1   force =     0.00006824   -0.00097660   -0.00032160
     atom    7 type  1   force =     0.00119119    0.00071363   -0.00101990
     atom    8 type  1   force =    -0.00038300    0.00180726   -0.00464725
     atom    9 type  1   force =     0.00318157    0.00043670    0.00451109
     atom   10 type  1   force =    -0.00122583   -0.00272417   -0.00329782
     atom   11 type  1   force =    -0.00094305   -0.00024455    0.00057395
     atom   12 type  1   force =     0.00108682    0.00017116    0.00007634
     atom   13 type  1   force =    -0.00265497    0.00045572    0.00938830
     atom   14 type  1   force =     0.00047056    0.00152965    0.00410273
     atom   15 type  1   force =    -0.00082714   -0.00096669    0.01031337
     atom   16 type  1   force =     0.00178216    0.00075011    0.00394528

     Total force =     0.022620     Total SCF correction =     0.001006
     Energy error            =      1.2E-03 Ry
     Gradient error          =      1.0E-02 Ry/Bohr

     number of scf cycles    =   5
     number of bfgs steps    =   4

     energy             old  =   -2857.2939076476 Ry
     energy             new  =   -2857.2950777395 Ry

     CASE: energy            _new < energy            _old

     new trust radius        =       0.0278089591 bohr
     new conv_thr            =       0.0000001031 Ry


ATOMIC_POSITIONS (angstrom)
Ge            0.0086193904        2.8390535948        4.9284898211
Ge            1.4323058811        4.2668624193        6.4275829460
Ge            2.8544415203        0.0067115266        4.9153050726
Ge            4.2606908900        1.4211020967        6.4267398139
Ge            0.0061230716       -0.0014127104        7.8335021645
Ge            1.4184295056        1.4254989992        9.2594176729
Ge            2.8389912208        2.8380761395        7.8363027610
Ge            4.2534606393        4.2578066010        9.2718923719
Ge           -0.0053964680        2.8383437846       10.6609707132
Ge            1.4234503845        4.2634959975       12.0965922170
Ge            2.8381655136        0.0089247913       10.6659191577
Ge            4.2606439655        1.4140230727       12.0947657790
Ge            0.0075639920       -0.0012729694       13.5031099309
Ge            1.4141277420        1.4225100521       15.0030602355
Ge            2.8430971233        2.8375487418       13.4901426902
Ge            4.2604305087        4.2389728755       15.0048557031



     Writing output data file ./out/ge.save/
     NEW-OLD atomic charge density approx. for the potential

     total cpu time spent up to now is       69.4 secs

     Self-consistent Calculation

     iteration #  1     ecut=    60.00 Ry     beta= 0.40
     Davidson diagonalization with overlap
     ethr =  1.00E-06,  avg # of iterations =  5.5

     Threshold (ethr) on eigenvalues was too large:
     Diagonalizing with lowered threshold

     Davidson diagonalization with overlap
     ethr =  4.63E-08,  avg # of iterations =  3.0

     total cpu time spent up to now is       73.4 secs

     total energy              =   -2857.29569038 Ry
     estimated scf accuracy    <       0.00009709 Ry

     iteration #  2     ecut=    60.00 Ry     beta= 0.40
     Davidson diagonalization with overlap
     ethr =  4.33E-08,  avg # of iterations =  2.8

     total cpu time spent up to now is       74.8 secs

     total energy              =   -2857.29567875 Ry
     estimated scf accuracy    <       0.00021944 Ry

     iteration #  3     ecut=    60.00 Ry     beta= 0.40
     Davidson diagonalization with overlap
     ethr =  4.33E-08,  avg # of iterations =  2.2

     total cpu time spent up to now is       76.1 secs

     total energy              =   -2857.29569412 Ry
     estimated scf accuracy    <       0.00016343 Ry

     iteration #  4     ecut=    60.00 Ry     beta= 0.40
     Davidson diagonalization with overlap
     ethr =  4.33E-08,  avg # of iterations =  1.8

     total cpu time spent up to now is       77.3 secs

     total energy              =   -2857.29569471 Ry
     estimated scf accuracy    <       0.00032432 Ry

     iteration #  5     ecut=    60.00 Ry     beta= 0.40
     Davidson diagonalization with overlap
     ethr =  4.33E-08,  avg # of iterations =  1.2

     total cpu time spent up to now is       78.5 secs

     total energy              =   -2857.29571342 Ry
     estimated scf accuracy    <       0.00000645 Ry

     iteration #  6     ecut=    60.00 Ry     beta= 0.40
     Davidson diagonalization with overlap
     ethr =  2.88E-09,  avg # of iterations =  2.0

     total cpu time spent up to now is       79.8 secs

     total energy              =   -2857.29571401 Ry
     estimated scf accuracy    <       0.00000057 Ry

     iteration #  7     ecut=    60.00 Ry     beta= 0.40
     Davidson diagonalization with overlap
     ethr =  2.55E-10,  avg # of iterations =  2.8

     total cpu time spent up to now is       81.1 secs

     total energy              =   -2857.29571408 Ry
     estimated scf accuracy    <       0.00000022 Ry

     iteration #  8     ecut=    60.00 Ry     beta= 0.40
     Davidson diagonalization with overlap
     ethr =  9.75E-11,  avg # of iterations =  2.2

     total cpu time spent up to now is       82.4 secs

     End of self-consistent calculation

          k = 0.0000 0.0000 0.0000 ( 33997 PWs)   bands (ev):

   -21.6391 -21.6331 -21.6320 -21.6249 -21.6058 -21.6037 -21.6015 -21.5819
   -21.5766 -21.5491 -21.5472 -21.5436 -21.5388 -21.5378 -21.5278 -21.5249
   -21.5240 -21.5198 -21.5007 -21.4962 -21.4833 -21.4561 -21.4533 -21.4462
   -21.4438 -21.4289 -21.4288 -21.4197 -21.4189 -21.4161 -21.3888 -21.3880
   -21.3860 -21.3840 -21.3577 -21.3559 -21.3531 -21.3478 -21.3416 -21.3410
   -21.3392 -21.3375 -21.3358 -21.3308 -21.3262 -21.3086 -21.3056 -21.3039
   -21.2998 -21.2954 -21.2808 -21.2798 -21.2699 -21.2644 -21.2337 -21.2304
   -21.2040 -21.1999 -21.1906 -21.1872 -21.0775 -21.0726 -21.0696 -21.0642
   -21.0632 -21.0589 -21.0547 -21.0498 -21.0225 -21.0192 -21.0167 -21.0142
   -21.0113 -21.0062 -21.0047 -20.9979 -20.9750 -20.9685 -20.9663 -20.9614
    -9.0633  -8.2649  -7.2046  -5.8749  -5.4660  -5.4590  -5.4239  -5.4147
    -5.0718  -5.0596  -4.3499  -4.3233  -4.3228  -2.4795  -0.4645  -0.1449
    -0.1432  -0.1327  -0.1292   0.3905   0.3935   0.6043   0.6317   1.4153
     1.4487   1.5977   2.1532   2.1599   2.4296   2.4478   2.6129   2.6165
     3.2062   3.5061   4.2576   4.3044   4.7410   4.8796   4.9068   4.9102
     5.0987   5.3187   5.3909   5.5845   5.5880   5.6738   5.8591   6.5407
     6.5453   6.5856   7.5232   7.7765   7.8673   7.8732

          k = 0.0000-0.5000 0.0000 ( 33994 PWs)   bands (ev):

   -21.6462 -21.6423 -21.6349 -21.6322 -21.6105 -21.6086 -21.5862 -21.5844
   -21.5566 -21.5554 -21.5484 -21.5479 -21.5349 -21.5336 -21.5240 -21.5213
   -21.5160 -21.5146 -21.4871 -21.4845 -21.4837 -21.4825 -21.4522 -21.4512
   -21.4423 -21.4412 -21.4228 -21.4222 -21.4130 -21.4112 -21.3880 -21.3861
   -21.3846 -21.3828 -21.3718 -21.3695 -21.3537 -21.3531 -21.3410 -21.3406
   -21.3379 -21.3371 -21.3343 -21.3332 -21.3080 -21.3073 -21.3051 -21.3033
   -21.3006 -21.2991 -21.2783 -21.2764 -21.2567 -21.2563 -21.2535 -21.2522
   -21.1938 -21.1933 -21.1907 -21.1889 -21.0808 -21.0799 -21.0749 -21.0744
   -21.0474 -21.0468 -21.0432 -21.0425 -21.0217 -21.0209 -21.0173 -21.0162
   -21.0155 -21.0146 -21.0110 -21.0106 -20.9662 -20.9658 -20.9611 -20.9606
    -8.0943  -8.0847  -7.3853  -7.3755  -6.4925  -6.4911  -5.5021  -5.4761
    -4.5044  -4.4939  -3.4130  -3.4052  -2.3392  -2.3279  -1.5654  -1.5608
    -0.4823  -0.4753  -0.4532  -0.4488   0.4536   0.4601   0.5791   0.5891
     1.3765   1.3816   1.6873   1.6905   2.6181   2.6267   2.6958   2.6965
     3.4366   3.4524   3.7829   3.8012   5.5255   5.5418   6.0574   6.0619
     6.5110   6.5215   6.7963   6.8024   7.1114   7.1226   7.4308   7.4395
     8.0736   8.0793   8.1144   8.1240   8.3952   8.4081

          k =-0.5000-0.5000 0.0000 ( 34004 PWs)   bands (ev):

   -21.6417 -21.6385 -21.6349 -21.6109 -21.6054 -21.6022 -21.6018 -21.5877
   -21.5826 -21.5667 -21.5586 -21.5486 -21.5458 -21.5384 -21.5335 -21.5076
   -21.5054 -21.5017 -21.4992 -21.4966 -21.4950 -21.4916 -21.4751 -21.4577
   -21.4517 -21.4093 -21.4061 -21.4045 -21.4039 -21.4026 -21.3939 -21.3906
   -21.3814 -21.3779 -21.3746 -21.3720 -21.3619 -21.3507 -21.3438 -21.3423
   -21.3406 -21.3385 -21.3224 -21.3208 -21.3089 -21.3073 -21.3058 -21.3048
   -21.3025 -21.3000 -21.2986 -21.2819 -21.2684 -21.2650 -21.2386 -21.2350
   -21.2062 -21.2026 -21.1921 -21.1884 -21.0807 -21.0745 -21.0689 -21.0646
   -21.0566 -21.0520 -21.0506 -21.0458 -21.0228 -21.0212 -21.0173 -21.0168
   -21.0147 -21.0128 -20.9973 -20.9923 -20.9758 -20.9719 -20.9708 -20.9671
    -7.4200  -7.3703  -7.3662  -7.2659  -7.1467  -6.7118  -6.7071  -4.8544
    -4.7777  -3.8042  -3.7951  -3.6819  -3.5501  -3.1080  -2.6265  -2.6139
     0.1345   0.2148   0.2197   0.2824   1.4736   1.6599   1.8684   1.9511
     1.9544   2.0289   2.0779   2.0824   2.0919   2.6059   2.6074   2.6235
     3.0644   3.0690   4.1367   4.7428   4.9775   4.9794   5.1252   5.4090
     5.4264   5.6473   5.6474   7.0234   7.0339   7.1616   7.4723   7.4775
     7.5856   7.6479   7.6545   7.7030   7.7109   8.1742

          k =-0.5000 0.0000 0.0000 ( 33994 PWs)   bands (ev):

   -21.6461 -21.6425 -21.6349 -21.6321 -21.6102 -21.6089 -21.5867 -21.5840
   -21.5570 -21.5549 -21.5485 -21.5479 -21.5349 -21.5337 -21.5235 -21.5218
   -21.5158 -21.5148 -21.4872 -21.4841 -21.4840 -21.4825 -21.4521 -21.4513
   -21.4423 -21.4412 -21.4230 -21.4220 -21.4130 -21.4113 -21.3878 -21.3863
   -21.3847 -21.3827 -21.3719 -21.3695 -21.3538 -21.3529 -21.3410 -21.3406
   -21.3379 -21.3372 -21.3342 -21.3333 -21.3081 -21.3073 -21.3051 -21.3032
   -21.3009 -21.2989 -21.2784 -21.2764 -21.2566 -21.2564 -21.2535 -21.2522
   -21.1938 -21.1933 -21.1908 -21.1889 -21.0806 -21.0801 -21.0749 -21.0743
   -21.0472 -21.0470 -21.0431 -21.0426 -21.0215 -21.0210 -21.0174 -21.0162
   -21.0155 -21.0145 -21.0110 -21.0106 -20.9662 -20.9658 -20.9611 -20.9607
    -8.0959  -8.0831  -7.3847  -7.3762  -6.4965  -6.4870  -5.4974  -5.4807
    -4.5035  -4.4948  -3.4174  -3.4010  -2.3371  -2.3298  -1.5671  -1.5589
    -0.4810  -0.4772  -0.4519  -0.4498   0.4542   0.4594   0.5799   0.5883
     1.3766   1.3816   1.6869   1.6908   2.6171   2.6275   2.6948   2.6977
     3.4354   3.4534   3.7827   3.8017   5.5219   5.5455   6.0565   6.0627
     6.5105   6.5222   6.7932   6.8058   7.1110   7.1224   7.4342   7.4364
     8.0685   8.0846   8.1113   8.1268   8.3921   8.4112

     the Fermi energy is     2.8999 ev

!    total energy              =   -2857.29571409 Ry
     estimated scf accuracy    <       0.00000001 Ry
     smearing contrib. (-TS)   =      -0.00141006 Ry
     internal energy E=F+TS    =   -2857.29430403 Ry

     The total energy is F=E-TS. E is the sum of the following terms:
     one-electron contribution =   -7802.77663253 Ry
     hartree contribution      =    4004.03763892 Ry
     xc contribution           =    -697.30645485 Ry
     ewald contribution        =    1638.75114442 Ry

     convergence has been achieved in   8 iterations

     Forces acting on atoms (cartesian axes, Ry/au):

     atom    1 type  1   force =     0.00086050    0.00086879   -0.00166596
     atom    2 type  1   force =    -0.00000478   -0.00073756   -0.01037354
     atom    3 type  1   force =    -0.00139235   -0.00160994   -0.00191049
     atom    4 type  1   force =     0.00068585    0.00070881   -0.00717539
     atom    5 type  1   force =    -0.00207152   -0.00042794   -0.00046077
     atom    6 type  1   force =    -0.00040515   -0.00109415   -0.00050859
     atom    7 type  1   force =     0.00140895    0.00098902   -0.00249331
     atom    8 type  1   force =     0.00014248    0.00180461   -0.00505780
     atom    9 type  1   force =     0.00337996    0.00092169    0.00501465
     atom   10 type  1   force =    -0.00146651   -0.00317296   -0.00189935
     atom   11 type  1   force =    -0.00128333   -0.00064766    0.00085498
     atom   12 type  1   force =     0.00135199    0.00051957    0.00144619
     atom   13 type  1   force =    -0.00273288   -0.00019584    0.00999970
     atom   14 type  1   force =     0.00083103    0.00198730    0.00185218
     atom   15 type  1   force =    -0.00134664   -0.00083469    0.01085808
     atom   16 type  1   force =     0.00204241    0.00092095    0.00151941

     Total force =     0.022824     Total SCF correction =     0.000338
     Energy error            =      6.4E-04 Ry
     Gradient error          =      1.1E-02 Ry/Bohr

     number of scf cycles    =   6
     number of bfgs steps    =   5

     energy             old  =   -2857.2950777395 Ry
     energy             new  =   -2857.2957140920 Ry

     CASE: energy            _new < energy            _old

     new trust radius        =       0.0305898551 bohr
     new conv_thr            =       0.0000000636 Ry


ATOMIC_POSITIONS (angstrom)
Ge            0.0084887484        2.8390691697        4.9133838962
Ge            1.4327125705        4.2663493005        6.4180852847
Ge            2.8543809693        0.0060533079        4.9017134495
Ge            4.2599582245        1.4214741667        6.4172833841
Ge            0.0057728667       -0.0005945285        7.8329445784
Ge            1.4197582610        1.4252915016        9.2588736347
Ge            2.8389716635        2.8378126692        7.8347329158
Ge            4.2525329679        4.2582452234        9.2694254996
Ge           -0.0047623441        2.8374427542       10.6618377638
Ge            1.4234572512        4.2631385783       12.0962439914
Ge            2.8386544954        0.0093761670       10.6658681449
Ge            4.2602685839        1.4138381309       12.0954963471
Ge            0.0068306986        0.0005483790       13.5121299949
Ge            1.4122031429        1.4227103552       15.0188372634
Ge            2.8439873260        2.8373606646       13.5008413920
Ge            4.2619294551        4.2381291729       15.0209515100



     Writing output data file ./out/ge.save/
     NEW-OLD atomic charge density approx. for the potential

     total cpu time spent up to now is       82.9 secs

     Self-consistent Calculation

     iteration #  1     ecut=    60.00 Ry     beta= 0.40
     Davidson diagonalization with overlap
     ethr =  1.00E-06,  avg # of iterations =  6.0

     Threshold (ethr) on eigenvalues was too large:
     Diagonalizing with lowered threshold

     Davidson diagonalization with overlap
     ethr =  4.94E-08,  avg # of iterations =  3.0

     total cpu time spent up to now is       87.0 secs

     total energy              =   -2857.29651836 Ry
     estimated scf accuracy    <       0.00010878 Ry

     iteration #  2     ecut=    60.00 Ry     beta= 0.40
     Davidson diagonalization with overlap
     ethr =  4.86E-08,  avg # of iterations =  2.0

     total cpu time spent up to now is       88.3 secs

     total energy              =   -2857.29652783 Ry
     estimated scf accuracy    <       0.00003006 Ry

     iteration #  3     ecut=    60.00 Ry     beta= 0.40
     Davidson diagonalization with overlap
     ethr =  1.34E-08,  avg # of iterations =  2.5

     total cpu time spent up to now is       89.6 secs

     total energy              =   -2857.29651382 Ry
     estimated scf accuracy    <       0.00025792 Ry

     iteration #  4     ecut=    60.00 Ry     beta= 0.40
     Davidson diagonalization with overlap
     ethr =  1.34E-08,  avg # of iterations =  1.8

     total cpu time spent up to now is       90.9 secs

     total energy              =   -2857.29652817 Ry
     estimated scf accuracy    <       0.00008306 Ry

     iteration #  5     ecut=    60.00 Ry     beta= 0.40
     Davidson diagonalization with overlap
     ethr =  1.34E-08,  avg # of iterations =  2.0

     total cpu time spent up to now is       92.1 secs

     total energy              =   -2857.29653384 Ry
     estimated scf accuracy    <       0.00002754 Ry

     iteration #  6     ecut=    60.00 Ry     beta= 0.40
     Davidson diagonalization with overlap
     ethr =  1.23E-08,  avg # of iterations =  1.2

     total cpu time spent up to now is       93.3 secs

     total energy              =   -2857.29653598 Ry
     estimated scf accuracy    <       0.00000055 Ry

     iteration #  7     ecut=    60.00 Ry     beta= 0.40
     Davidson diagonalization with overlap
     ethr =  2.48E-10,  avg # of iterations =  3.2

     total cpu time spent up to now is       94.7 secs

     total energy              =   -2857.29653604 Ry
     estimated scf accuracy    <       0.00000014 Ry

     iteration #  8     ecut=    60.00 Ry     beta= 0.40
     Davidson diagonalization with overlap
     ethr =  6.47E-11,  avg # of iterations =  2.5

     total cpu time spent up to now is       96.0 secs

     End of self-consistent calculation

          k = 0.0000 0.0000 0.0000 ( 33997 PWs)   bands (ev):

   -21.6339 -21.6284 -21.6269 -21.6192 -21.5991 -21.5984 -21.5981 -21.5769
   -21.5710 -21.5391 -21.5361 -21.5343 -21.5301 -21.5291 -21.5203 -21.5193
   -21.5184 -21.5148 -21.4905 -21.4877 -21.4758 -21.4486 -21.4470 -21.4410
   -21.4366 -21.4240 -21.4239 -21.4159 -21.4154 -21.4096 -21.3871 -21.3863
   -21.3841 -21.3824 -21.3536 -21.3519 -21.3481 -21.3449 -21.3392 -21.3381
   -21.3377 -21.3356 -21.3343 -21.3289 -21.3216 -21.3076 -21.3044 -21.3028
   -21.2989 -21.2937 -21.2780 -21.2773 -21.2654 -21.2598 -21.2303 -21.2272
   -21.2014 -21.1975 -21.1884 -21.1850 -21.0666 -21.0633 -21.0592 -21.0553
   -21.0536 -21.0507 -21.0441 -21.0406 -21.0116 -21.0106 -21.0074 -21.0068
   -21.0006 -20.9970 -20.9954 -20.9890 -20.9682 -20.9613 -20.9581 -20.9542
    -9.0465  -8.2370  -7.1871  -5.8725  -5.4584  -5.4542  -5.4039  -5.3976
    -5.0422  -5.0342  -4.3461  -4.3115  -4.3094  -2.4850  -0.4801  -0.1318
    -0.1313  -0.1230  -0.1200   0.4023   0.4044   0.6259   0.6460   1.4512
     1.4729   1.5840   2.1593   2.1655   2.4471   2.4701   2.6185   2.6214
     3.2107   3.4984   4.2781   4.3164   4.7457   4.8783   4.8952   4.8994
     5.1219   5.3227   5.3933   5.5806   5.5840   5.6729   5.8609   6.5163
     6.5204   6.5860   7.5187   7.7680   7.8558   7.8615

          k = 0.0000-0.5000 0.0000 ( 33994 PWs)   bands (ev):

   -21.6408 -21.6369 -21.6299 -21.6270 -21.6066 -21.6041 -21.5807 -21.5785
   -21.5472 -21.5451 -21.5388 -21.5379 -21.5284 -21.5269 -21.5170 -21.5141
   -21.5085 -21.5069 -21.4795 -21.4776 -21.4764 -21.4753 -21.4486 -21.4472
   -21.4348 -21.4343 -21.4167 -21.4158 -21.4098 -21.4079 -21.3864 -21.3843
   -21.3828 -21.3811 -21.3682 -21.3656 -21.3495 -21.3491 -21.3397 -21.3390
   -21.3362 -21.3353 -21.3310 -21.3297 -21.3066 -21.3057 -21.3039 -21.3016
[...]

   -21.5281 -21.5126 -21.4925 -21.4756 -21.4526 -21.4365 -21.4208 -21.4033
   -21.3905 -21.3744 -21.3207 -21.3051 -21.3017 -21.2995 -21.2927 -21.2880
   -21.2836 -21.2795 -21.2764 -21.2748 -21.2636 -21.2562 -21.2455 -21.2420
   -21.2268 -21.2236 -21.2228 -21.2177 -21.2133 -21.2072 -21.2059 -21.1960
   -21.1940 -21.1918 -21.1805 -21.1790 -21.1769 -21.1729 -21.1712 -21.1611
   -21.1572 -21.1539 -21.1475 -21.1367 -21.1325 -21.1257 -21.1218 -21.1194
   -21.1111 -21.1067 -21.1016 -21.1000 -21.0977 -21.0961 -21.0832 -21.0815
   -21.0674 -21.0660 -21.0631 -21.0482 -21.0411 -21.0368 -21.0314 -21.0164
   -21.0026 -20.9960 -20.9957 -20.9822 -20.9747 -20.9714 -20.9689 -20.9679
   -20.9611 -20.9606 -20.9538 -20.9527 -20.9417 -20.9360 -20.9293 -20.9286
    -7.0466  -6.9932  -6.9604  -6.9195  -6.8350  -6.3546  -6.3030  -5.8265
    -5.7552  -3.5211  -3.4351  -3.3324  -3.2623  -3.0166  -2.1041  -1.7330
    -0.1260   0.3061   0.5972   0.7397   0.9336   1.7219   1.7428   1.9877
     1.9986   2.0120   2.3552   2.3682   2.3946   2.7564   3.2581   3.3384
     3.3991   3.9968   4.4963   4.5527   4.6304   4.8972   4.8994   5.5128
     5.7940   6.3494   6.6713   6.9150   7.0461   7.0695   7.2645   7.2903
     7.3140   7.3896   7.6443   7.6934   7.8468   7.9190

          k =-0.5000 0.0000 0.0000 ( 33994 PWs)   bands (ev):

   -21.5271 -21.5117 -21.4907 -21.4739 -21.4511 -21.4349 -21.4209 -21.4036
   -21.3891 -21.3728 -21.3169 -21.3121 -21.3058 -21.3003 -21.2962 -21.2935
   -21.2890 -21.2852 -21.2775 -21.2725 -21.2572 -21.2556 -21.2306 -21.2292
   -21.2233 -21.2226 -21.2177 -21.2132 -21.2104 -21.2049 -21.1995 -21.1939
   -21.1910 -21.1838 -21.1807 -21.1710 -21.1699 -21.1678 -21.1646 -21.1626
   -21.1598 -21.1515 -21.1430 -21.1398 -21.1367 -21.1326 -21.1303 -21.1244
   -21.1174 -21.1156 -21.1088 -21.1033 -21.0971 -21.0940 -21.0877 -21.0817
   -21.0750 -21.0629 -21.0597 -21.0536 -21.0488 -21.0345 -21.0237 -21.0134
   -20.9980 -20.9968 -20.9939 -20.9885 -20.9744 -20.9710 -20.9682 -20.9659
   -20.9595 -20.9524 -20.9510 -20.9497 -20.9383 -20.9350 -20.9276 -20.9267
    -7.7617  -7.7072  -7.3222  -7.1192  -6.4529  -6.2172  -5.4358  -5.1100
    -4.4981  -4.0622  -3.6457  -3.1091  -2.6285  -2.0656  -1.5216  -1.1968
    -0.3166  -0.1988  -0.0424   0.0260   0.3954   0.7479   0.7545   1.0704
     1.5324   1.6539   1.6901   1.7985   2.0577   2.3404   2.4487   2.7485
     4.0145   4.1219   4.7346   5.0506   5.1501   5.4788   5.7046   5.9155
     6.0461   6.3545   6.6073   6.6757   7.0928   7.1240   7.5816   7.8227
     7.8797   8.1498   8.2447   8.2644   8.2902   8.4902

     the Fermi energy is     3.2990 ev

!    total energy              =   -2857.43327354 Ry
     estimated scf accuracy    <          7.5E-09 Ry
     smearing contrib. (-TS)   =      -0.00441290 Ry
     internal energy E=F+TS    =   -2857.42886064 Ry

     The total energy is F=E-TS. E is the sum of the following terms:
     one-electron contribution =   -7571.91687307 Ry
     hartree contribution      =    3889.82439334 Ry
     xc contribution           =    -697.27229700 Ry
     ewald contribution        =    1521.93591608 Ry

     convergence has been achieved in   8 iterations

     Forces acting on atoms (cartesian axes, Ry/au):

     atom    1 type  1   force =     0.00042056    0.00063789    0.00269586
     atom    2 type  1   force =    -0.00004920   -0.00165330   -0.00056123
     atom    3 type  1   force =     0.00096584   -0.00202068    0.00030090
     atom    4 type  1   force =     0.00150552   -0.00014373   -0.00043292
     atom    5 type  1   force =     0.00201964    0.00060268   -0.00060341
     atom    6 type  1   force =     0.00083409   -0.00147946   -0.00059700
     atom    7 type  1   force =    -0.00037330   -0.00057798   -0.00031274
     atom    8 type  1   force =    -0.00103142    0.00051036   -0.00275805
     atom    9 type  1   force =    -0.00131123    0.00044790    0.00180508
     atom   10 type  1   force =    -0.00116849    0.00260076   -0.00144765
     atom   11 type  1   force =     0.00064213   -0.00028490    0.00254100
     atom   12 type  1   force =    -0.00010164   -0.00056066   -0.00100739
     atom   13 type  1   force =    -0.00068690    0.00056539   -0.00121620
     atom   14 type  1   force =     0.00047783    0.00105062    0.00202157
     atom   15 type  1   force =    -0.00257516   -0.00019131   -0.00028853
     atom   16 type  1   force =     0.00043172    0.00049643   -0.00013931

     Total force =     0.008638     Total SCF correction =     0.000343
     Energy error            =      1.6E-04 Ry
     Gradient error          =      2.8E-03 Ry/Bohr

     number of scf cycles    =  49
     number of bfgs steps    =  48

     energy             old  =   -2857.4331099898 Ry
     energy             new  =   -2857.4332735404 Ry

     CASE: energy            _new < energy            _old

     new trust radius        =       0.0121152441 bohr
     new conv_thr            =       0.0000000164 Ry


ATOMIC_POSITIONS (angstrom)
Ge           -0.4095901280        3.2311914502        4.5306284091
Ge            1.3071669856        4.2440437346        6.2417307033
Ge            3.5201478198       -0.6949109157        5.3826820239
Ge            4.2610636194        1.5183354327        6.2430004809
Ge            0.0231692376        0.0603760907        7.7747533131
Ge            1.3897665783        1.4505818541        9.2985808625
Ge            2.7829779754        2.8171794145        7.7730271133
Ge            4.2850316775        4.2325155681        9.1902572583
Ge           -0.0118841470        2.8536469612       10.7716481711
Ge            1.4922528260        4.2855243901       12.1664299267
Ge            2.8556971227       -0.0214399658       10.6143161137
Ge            4.2206084824        1.3458301609       12.1562012422
Ge            0.0013981584       -0.0895031468       13.6802862684
Ge            0.7449368140        2.1240423786       14.5198833156
Ge            2.9696061812        2.8583507171       13.6898312034
Ge            4.6827956776        3.8604808881       15.3853926449



     Writing output data file ./out/ge.save/
     NEW-OLD atomic charge density approx. for the potential

     total cpu time spent up to now is      736.4 secs

     Self-consistent Calculation

     iteration #  1     ecut=    60.00 Ry     beta= 0.40
     Davidson diagonalization with overlap
     ethr =  1.00E-06,  avg # of iterations =  4.0

     Threshold (ethr) on eigenvalues was too large:
     Diagonalizing with lowered threshold

     Davidson diagonalization with overlap
     ethr =  1.16E-08,  avg # of iterations =  4.2

     total cpu time spent up to now is      740.5 secs

     total energy              =   -2857.43339910 Ry
     estimated scf accuracy    <       0.00002751 Ry

     iteration #  2     ecut=    60.00 Ry     beta= 0.40
     Davidson diagonalization with overlap
     ethr =  1.23E-08,  avg # of iterations =  2.0

     total cpu time spent up to now is      741.8 secs

     total energy              =   -2857.43339159 Ry
     estimated scf accuracy    <       0.00007694 Ry

     iteration #  3     ecut=    60.00 Ry     beta= 0.40
     Davidson diagonalization with overlap
     ethr =  1.23E-08,  avg # of iterations =  2.0

     total cpu time spent up to now is      743.1 secs

     total energy              =   -2857.43338830 Ry
     estimated scf accuracy    <       0.00052075 Ry

     iteration #  4     ecut=    60.00 Ry     beta= 0.40
     Davidson diagonalization with overlap
     ethr =  1.23E-08,  avg # of iterations =  1.8

     total cpu time spent up to now is      744.3 secs

     total energy              =   -2857.43340351 Ry
     estimated scf accuracy    <       0.00000759 Ry

     iteration #  5     ecut=    60.00 Ry     beta= 0.40
     Davidson diagonalization with overlap
     ethr =  3.39E-09,  avg # of iterations =  2.0

     total cpu time spent up to now is      745.6 secs

     total energy              =   -2857.43340444 Ry
     estimated scf accuracy    <       0.00000684 Ry

     iteration #  6     ecut=    60.00 Ry     beta= 0.40
     Davidson diagonalization with overlap
     ethr =  3.05E-09,  avg # of iterations =  2.0

     total cpu time spent up to now is      746.8 secs

     total energy              =   -2857.43340514 Ry
     estimated scf accuracy    <       0.00000041 Ry

     iteration #  7     ecut=    60.00 Ry     beta= 0.40
     Davidson diagonalization with overlap
     ethr =  1.82E-10,  avg # of iterations =  2.5

     total cpu time spent up to now is      748.1 secs

     total energy              =   -2857.43340522 Ry
     estimated scf accuracy    <       0.00000006 Ry

     iteration #  8     ecut=    60.00 Ry     beta= 0.40
     Davidson diagonalization with overlap
     ethr =  2.55E-11,  avg # of iterations =  2.2

     total cpu time spent up to now is      749.5 secs

     End of self-consistent calculation

          k = 0.0000 0.0000 0.0000 ( 33997 PWs)   bands (ev):

   -21.5299 -21.5117 -21.4917 -21.4726 -21.4529 -21.4342 -21.4224 -21.4041
   -21.3908 -21.3733 -21.3125 -21.3088 -21.3001 -21.2972 -21.2946 -21.2915
   -21.2885 -21.2804 -21.2755 -21.2687 -21.2634 -21.2602 -21.2592 -21.2447
   -21.2413 -21.2255 -21.2194 -21.2119 -21.2048 -21.1977 -21.1954 -21.1907
   -21.1901 -21.1853 -21.1821 -21.1764 -21.1726 -21.1714 -21.1622 -21.1603
   -21.1543 -21.1498 -21.1464 -21.1402 -21.1378 -21.1344 -21.1281 -21.1255
   -21.1234 -21.1186 -21.1125 -21.1040 -21.1016 -21.0938 -21.0876 -21.0763
   -21.0676 -21.0653 -21.0635 -21.0498 -21.0367 -21.0329 -21.0250 -21.0103
   -21.0012 -20.9960 -20.9932 -20.9880 -20.9798 -20.9783 -20.9676 -20.9669
   -20.9564 -20.9535 -20.9498 -20.9488 -20.9425 -20.9308 -20.9250 -20.9239
    -8.6813  -8.1746  -7.2632  -5.9265  -5.0571  -5.0406  -5.0331  -4.9970
    -4.8430  -4.8404  -4.4773  -3.7862  -3.6802  -2.8020  -1.2237  -0.2643
    -0.2061   0.0764   0.1588   0.6350   0.8571   0.9154   1.1272   1.1404
     1.4308   1.6388   1.8275   1.9578   2.2401   2.7543   2.9656   3.0357
     3.2013   3.5172   4.4275   4.6128   4.8056   4.9054   5.0371   5.0747
     5.2808   5.4641   5.7052   5.7427   6.0799   6.0921   6.5151   6.6579
     6.7849   7.0974   7.4240   7.4391   8.4057   8.5049

          k = 0.0000-0.5000 0.0000 ( 33994 PWs)   bands (ev):

   -21.5302 -21.5121 -21.4934 -21.4743 -21.4542 -21.4356 -21.4223 -21.4038
   -21.3908 -21.3733 -21.3173 -21.3124 -21.3074 -21.3010 -21.2981 -21.2964
   -21.2907 -21.2833 -21.2756 -21.2727 -21.2605 -21.2561 -21.2320 -21.2306
   -21.2254 -21.2228 -21.2167 -21.2152 -21.2081 -21.2054 -21.2011 -21.1977
   -21.1921 -21.1823 -21.1790 -21.1735 -21.1704 -21.1643 -21.1620 -21.1606
   -21.1575 -21.1515 -21.1442 -21.1404 -21.1370 -21.1324 -21.1304 -21.1252
   -21.1206 -21.1132 -21.1082 -21.1027 -21.0989 -21.0956 -21.0884 -21.0834
   -21.0753 -21.0662 -21.0608 -21.0540 -21.0476 -21.0354 -21.0247 -21.0141
   -21.0001 -20.9950 -20.9922 -20.9888 -20.9763 -20.9729 -20.9670 -20.9662
   -20.9581 -20.9520 -20.9494 -20.9494 -20.9406 -20.9323 -20.9251 -20.9245
    -7.7639  -7.7128  -7.3330  -7.1174  -6.4547  -6.2143  -5.4353  -5.1138
    -4.4942  -4.0737  -3.6434  -3.1246  -2.6221  -2.0694  -1.5156  -1.1740
    -0.3260  -0.2032  -0.0560   0.0249   0.3857   0.7370   0.7499   1.0689
     1.5412   1.6595   1.6783   1.8130   2.0542   2.3339   2.4457   2.7399
     4.0097   4.1214   4.7495   5.0800   5.1588   5.4806   5.6894   5.9153
     6.0648   6.3458   6.6141   6.6687   7.1050   7.1291   7.5945   7.8115
     7.8819   8.1521   8.2389   8.2723   8.2916   8.4766

          k =-0.5000-0.5000 0.0000 ( 34004 PWs)   bands (ev):

   -21.5312 -21.5130 -21.4952 -21.4762 -21.4555 -21.4369 -21.4222 -21.4037
   -21.3921 -21.3746 -21.3204 -21.3049 -21.3035 -21.2992 -21.2946 -21.2889
   -21.2842 -21.2781 -21.2778 -21.2759 -21.2659 -21.2600 -21.2477 -21.2415
   -21.2274 -21.2247 -21.2228 -21.2199 -21.2133 -21.2085 -21.2055 -21.1969
   -21.1940 -21.1909 -21.1795 -21.1776 -21.1769 -21.1727 -21.1709 -21.1602
   -21.1568 -21.1540 -21.1476 -21.1368 -21.1315 -21.1252 -21.1215 -21.1186
   -21.1118 -21.1070 -21.1024 -21.1006 -21.0982 -21.0963 -21.0843 -21.0815
   -21.0690 -21.0677 -21.0636 -21.0486 -21.0415 -21.0379 -21.0344 -21.0169
   -21.0050 -20.9944 -20.9938 -20.9838 -20.9777 -20.9717 -20.9674 -20.9670
   -20.9638 -20.9591 -20.9517 -20.9508 -20.9443 -20.9336 -20.9267 -20.9260
    -7.0485  -6.9949  -6.9647  -6.9255  -6.8409  -6.3590  -6.3077  -5.8234
    -5.7528  -3.5209  -3.4396  -3.3339  -3.2641  -3.0161  -2.1056  -1.7346
    -0.1260   0.3043   0.5987   0.7428   0.9293   1.7230   1.7430   1.9846
     2.0003   2.0093   2.3546   2.3706   2.3870   2.7570   3.2508   3.3303
     3.4000   4.0004   4.4930   4.5534   4.6311   4.8976   4.9013   5.5119
     5.7980   6.3512   6.6739   6.9210   7.0498   7.0710   7.2641   7.2976
     7.3129   7.3930   7.6383   7.6954   7.8505   7.9120

          k =-0.5000 0.0000 0.0000 ( 33994 PWs)   bands (ev):

   -21.5302 -21.5121 -21.4935 -21.4745 -21.4539 -21.4352 -21.4224 -21.4040
   -21.3907 -21.3732 -21.3160 -21.3125 -21.3060 -21.3012 -21.2967 -21.2956
   -21.2923 -21.2875 -21.2765 -21.2720 -21.2590 -21.2575 -21.2313 -21.2311
   -21.2232 -21.2227 -21.2175 -21.2135 -21.2119 -21.2054 -21.2008 -21.1947
   -21.1901 -21.1828 -21.1799 -21.1705 -21.1691 -21.1674 -21.1647 -21.1621
   -21.1595 -21.1512 -21.1438 -21.1400 -21.1363 -21.1321 -21.1306 -21.1253
   -21.1176 -21.1157 -21.1093 -21.1042 -21.0977 -21.0941 -21.0882 -21.0830
   -21.0754 -21.0634 -21.0606 -21.0544 -21.0504 -21.0345 -21.0243 -21.0158
   -21.0005 -20.9952 -20.9921 -20.9907 -20.9761 -20.9704 -20.9668 -20.9661
   -20.9581 -20.9529 -20.9498 -20.9488 -20.9408 -20.9325 -20.9250 -20.9243
    -7.7623  -7.7142  -7.3281  -7.1228  -6.4494  -6.2203  -5.4361  -5.1156
    -4.4981  -4.0656  -3.6489  -3.1091  -2.6294  -2.0646  -1.5255  -1.1920
    -0.3186  -0.1995  -0.0484   0.0220   0.3937   0.7431   0.7533   1.0658
     1.5344   1.6549   1.6874   1.7980   2.0589   2.3340   2.4507   2.7521
     4.0148   4.1188   4.7362   5.0557   5.1518   5.4831   5.7094   5.9174
     6.0472   6.3599   6.6111   6.6797   7.0993   7.1229   7.5846   7.8249
     7.8809   8.1479   8.2479   8.2609   8.2928   8.4846

     the Fermi energy is     3.2940 ev

!    total energy              =   -2857.43340523 Ry
     estimated scf accuracy    <          8.8E-09 Ry
     smearing contrib. (-TS)   =      -0.00438180 Ry
     internal energy E=F+TS    =   -2857.42902343 Ry

     The total energy is F=E-TS. E is the sum of the following terms:
     one-electron contribution =   -7580.66019055 Ry
     hartree contribution      =    3894.19265884 Ry
     xc contribution           =    -697.27689909 Ry
     ewald contribution        =    1526.31540738 Ry

     convergence has been achieved in   8 iterations

     Forces acting on atoms (cartesian axes, Ry/au):

     atom    1 type  1   force =    -0.00003389    0.00103457    0.00215696
     atom    2 type  1   force =     0.00005236   -0.00150473   -0.00059578
     atom    3 type  1   force =     0.00142984   -0.00200719   -0.00004510
     atom    4 type  1   force =     0.00137719   -0.00068154   -0.00008668
     atom    5 type  1   force =     0.00127835    0.00045293   -0.00006711
     atom    6 type  1   force =    -0.00012466    0.00005913   -0.00047740
     atom    7 type  1   force =    -0.00016254   -0.00087635    0.00015336
     atom    8 type  1   force =     0.00016334   -0.00012159   -0.00247038
     atom    9 type  1   force =    -0.00166093    0.00005895    0.00037553
     atom   10 type  1   force =    -0.00044929    0.00136386   -0.00078950
     atom   11 type  1   force =     0.00060272   -0.00092555    0.00147319
     atom   12 type  1   force =     0.00020416    0.00080831   -0.00081616
     atom   13 type  1   force =    -0.00120484   -0.00043418    0.00014682
     atom   14 type  1   force =     0.00063752    0.00164470    0.00150570
     atom   15 type  1   force =    -0.00242271    0.00028516    0.00001049
     atom   16 type  1   force =     0.00031337    0.00084353   -0.00047394

     Total force =     0.007086     Total SCF correction =     0.000455
     Energy error            =      1.3E-04 Ry
     Gradient error          =      2.5E-03 Ry/Bohr

     number of scf cycles    =  50
     number of bfgs steps    =  49

     energy             old  =   -2857.4332735404 Ry
     energy             new  =   -2857.4334052258 Ry

     CASE: energy            _new < energy            _old

     new trust radius        =       0.0145680211 bohr

     The maximum number of steps has been reached.

     End of BFGS Geometry Optimization

ATOMIC_POSITIONS (angstrom)
Ge           -0.4080710148        3.2313206738        4.5362238271
Ge            1.3070966746        4.2411855040        6.2424379968
Ge            3.5221581099       -0.6986377663        5.3891239955
Ge            4.2636023841        1.5183971767        6.2434587421
Ge            0.0270729830        0.0611501384        7.7737167910
Ge            1.3916566778        1.4479331533        9.3000333590
Ge            2.7820661265        2.8154891198        7.7724704330
Ge            4.2827454174        4.2341691808        9.1866577142
Ge           -0.0137012985        2.8547487704       10.7725839449
Ge            1.4893189306        4.2900333316       12.1637880795
Ge            2.8572977265       -0.0214825732       10.6171807970
Ge            4.2200874254        1.3448877767       12.1550484034
Ge            0.0005168136       -0.0870332091       13.6766498557
Ge            0.7451634594        2.1249497339       14.5200688551
Ge            2.9657257524        2.8575198952       13.6870447159
Ge            4.6824087129        3.8616141065       15.3821615402



     Writing output data file ./out/ge.save/
     NEW-OLD atomic charge density approx. for the potential

     Writing output data file ./out/ge.save/
 
     init_run     :      0.47s CPU      0.77s WALL (       1 calls)
     electrons    :    572.91s CPU    728.18s WALL (      50 calls)
     update_pot   :      2.60s CPU      2.83s WALL (      50 calls)
     forces       :     10.71s CPU     16.46s WALL (      50 calls)

     Called by init_run:
     wfcinit      :      0.37s CPU      0.58s WALL (       1 calls)
     potinit      :      0.02s CPU      0.04s WALL (       1 calls)
     hinit0       :      0.03s CPU      0.08s WALL (       1 calls)

     Called by electrons:
     c_bands      :    514.52s CPU    663.02s WALL (     439 calls)
     sum_band     :     54.82s CPU     59.59s WALL (     439 calls)
     v_of_rho     :      2.70s CPU      3.38s WALL (     472 calls)
     mix_rho      :      0.77s CPU      0.82s WALL (     439 calls)

     Called by c_bands:
     init_us_2    :      6.22s CPU      6.43s WALL (    3716 calls)
     cegterg      :    488.32s CPU    634.86s WALL (    1756 calls)

     Called by *egterg:
     cdiaghg      :     75.57s CPU    166.11s WALL (    8707 calls)
     h_psi        :    294.72s CPU    323.23s WALL (    8979 calls)
     g_psi        :      1.19s CPU      1.32s WALL (    7219 calls)

     Called by h_psi:
     h_psi:calbec :     29.63s CPU     33.97s WALL (    8979 calls)
     vloc_psi     :    239.81s CPU    263.48s WALL (    8979 calls)
     add_vuspsi   :     22.87s CPU     23.29s WALL (    8979 calls)

     General routines
     calbec       :     34.91s CPU     44.56s WALL (    9779 calls)
     fft          :      2.41s CPU      3.43s WALL (    5289 calls)
     ffts         :      0.16s CPU      0.17s WALL (     439 calls)
     fftw         :    269.69s CPU    296.21s WALL ( 1432436 calls)
     davcio       :      0.00s CPU      0.01s WALL (       4 calls)
 
     Parallel routines
 
     PWSCF        :   9m47.86s CPU  12m30.65s WALL

 
   This run was terminated on:  15:39:32  28Apr2025            

=------------------------------------------------------------------------------=
   JOB DONE.
=------------------------------------------------------------------------------=
