
     Program PWSCF v.7.2 starts on 26Apr2025 at 16:27: 8 

     This program is part of the open-source Quantum ESPRESSO suite
     for quantum simulation of materials; please cite
         "P. Giannozzi et al., J. Phys.:Condens. Matter 21 395502 (2009);
         "P. Giannozzi et al., J. Phys.:Condens. Matter 29 465901 (2017);
         "P. Giannozzi et al., J. Chem. Phys. 152 154105 (2020);
          URL http://www.quantum-espresso.org", 
     in publications or presentations arising from this work. More details at
     http://www.quantum-espresso.org/quote

     Parallel version (MPI), running on     4 processors

     MPI processes distributed on     1 nodes
     200835 MiB available memory on the printing compute node when the environment starts

     Waiting for input...
     Reading input from standard input
Warning: card &CELL ignored
Warning: card / ignored

     Current dimensions of program PWSCF are:
     Max number of different atomic species (ntypx) = 10
     Max number of k-points (npk) =  40000
     Max angular momentum in pseudopotentials (lmaxx) =  4

     R & G space division:  proc/nbgrp/npool/nimage =       4
     Subspace diagonalization in iterative solution of the eigenvalue problem:
     a serial algorithm will be used


     Parallelization info
     --------------------
     sticks:   dense  smooth     PW     G-vecs:    dense   smooth      PW
     Min         406     406    115                10683    10683    1653
     Max         407     407    116                10684    10684    1655
     Sum        1627    1627    463                42735    42735    6615

     Using Slab Decomposition



     bravais-lattice index     =            2
     lattice parameter (alat)  =      12.0942  a.u.
     unit-cell volume          =     442.2588 (a.u.)^3
     number of atoms/cell      =            2
     number of atomic types    =            1
     number of electrons       =        28.00
     number of Kohn-Sham states=           18
     kinetic-energy cutoff     =      80.0000  Ry
     charge density cutoff     =     320.0000  Ry
     scf convergence threshold =      1.0E-06
     mixing beta               =       0.4000
     number of iterations used =            8  plain     mixing
     Exchange-correlation= PBE
                           (   1   4   3   4   0   0   0)

     celldm(1)=  12.094247  celldm(2)=   0.000000  celldm(3)=   0.000000
     celldm(4)=   0.000000  celldm(5)=   0.000000  celldm(6)=   0.000000

     crystal axes: (cart. coord. in units of alat)
               a(1) = (  -0.500000   0.000000   0.500000 )  
               a(2) = (   0.000000   0.500000   0.500000 )  
               a(3) = (  -0.500000   0.500000   0.000000 )  

     reciprocal axes: (cart. coord. in units 2 pi/alat)
               b(1) = ( -1.000000 -1.000000  1.000000 )  
               b(2) = (  1.000000  1.000000  1.000000 )  
               b(3) = ( -1.000000  1.000000 -1.000000 )  


     PseudoPot. # 1 for Ge read from file:
     ./Ge.upf
     MD5 check sum: 087fa14d6c89b52166990835c3b338da
     Pseudo is Norm-conserving + core correction, Zval = 14.0
     Generated using ONCVPSP code by D. R. Hamann
     Using radial grid of 1560 points,  6 beta functions with: 
                l(1) =   0
                l(2) =   0
                l(3) =   1
                l(4) =   1
                l(5) =   2
                l(6) =   2

     atomic species   valence    mass     pseudopotential
        Ge            14.00    72.63000     Ge( 1.00)

     48 Sym. Ops., with inversion, found (24 have fractional translation)



   Cartesian axes

     site n.     atom                  positions (alat units)
         1           Ge  tau(   1) = (   0.0000000   0.0000000   0.0000000  )
         2           Ge  tau(   2) = (   0.2500000   0.2500000   0.2500000  )

     number of k points=    29  Gaussian smearing, width (Ry)=  0.0100
                       cart. coord. in units 2pi/alat
        k(    1) = (   0.0000000   0.0000000   0.0000000), wk =   0.0039062
        k(    2) = (  -0.1250000   0.1250000  -0.1250000), wk =   0.0312500
        k(    3) = (  -0.2500000   0.2500000  -0.2500000), wk =   0.0312500
        k(    4) = (  -0.3750000   0.3750000  -0.3750000), wk =   0.0312500
        k(    5) = (   0.5000000  -0.5000000   0.5000000), wk =   0.0156250
        k(    6) = (   0.0000000   0.2500000   0.0000000), wk =   0.0234375
        k(    7) = (  -0.1250000   0.3750000  -0.1250000), wk =   0.0937500
        k(    8) = (  -0.2500000   0.5000000  -0.2500000), wk =   0.0937500
        k(    9) = (   0.6250000  -0.3750000   0.6250000), wk =   0.0937500
        k(   10) = (   0.5000000  -0.2500000   0.5000000), wk =   0.0937500
        k(   11) = (   0.3750000  -0.1250000   0.3750000), wk =   0.0937500
        k(   12) = (   0.2500000   0.0000000   0.2500000), wk =   0.0468750
        k(   13) = (   0.0000000   0.5000000   0.0000000), wk =   0.0234375
        k(   14) = (  -0.1250000   0.6250000  -0.1250000), wk =   0.0937500
        k(   15) = (   0.7500000  -0.2500000   0.7500000), wk =   0.0937500
        k(   16) = (   0.6250000  -0.1250000   0.6250000), wk =   0.0937500
        k(   17) = (   0.5000000   0.0000000   0.5000000), wk =   0.0468750
        k(   18) = (   0.0000000   0.7500000   0.0000000), wk =   0.0234375
        k(   19) = (   0.8750000  -0.1250000   0.8750000), wk =   0.0937500
        k(   20) = (   0.7500000   0.0000000   0.7500000), wk =   0.0468750
        k(   21) = (   0.0000000  -1.0000000   0.0000000), wk =   0.0117188
        k(   22) = (  -0.2500000   0.5000000   0.0000000), wk =   0.0937500
        k(   23) = (   0.6250000  -0.3750000   0.8750000), wk =   0.1875000
        k(   24) = (   0.5000000  -0.2500000   0.7500000), wk =   0.0937500
        k(   25) = (   0.7500000  -0.2500000   1.0000000), wk =   0.0937500
        k(   26) = (   0.6250000  -0.1250000   0.8750000), wk =   0.1875000
        k(   27) = (   0.5000000   0.0000000   0.7500000), wk =   0.0937500
        k(   28) = (  -0.2500000  -1.0000000   0.0000000), wk =   0.0468750
        k(   29) = (  -0.5000000  -1.0000000   0.0000000), wk =   0.0234375

     Dense  grid:    42735 G-vectors     FFT dimensions: (  60,  60,  60)

     Estimated max dynamical RAM per process >      22.87 MB

     Estimated total dynamical RAM >      91.46 MB

     Initial potential from superposition of free atoms

     starting charge      27.9984, renormalised to      28.0000
     Starting wfcs are   18 randomized atomic wfcs

     total cpu time spent up to now is        3.2 secs

     Self-consistent Calculation

     iteration #  1     ecut=    80.00 Ry     beta= 0.40
     Davidson diagonalization with overlap
     ethr =  1.00E-02,  avg # of iterations =  3.0

     Threshold (ethr) on eigenvalues was too large:
     Diagonalizing with lowered threshold

     Davidson diagonalization with overlap
     ethr =  5.37E-05,  avg # of iterations =  4.4

     total cpu time spent up to now is       19.7 secs

     total energy              =    -357.23776838 Ry
     estimated scf accuracy    <       0.01696393 Ry

     iteration #  2     ecut=    80.00 Ry     beta= 0.40
     Davidson diagonalization with overlap
     ethr =  6.06E-05,  avg # of iterations =  1.0

     total cpu time spent up to now is       25.7 secs

     total energy              =    -357.23764237 Ry
     estimated scf accuracy    <       0.00568701 Ry

     iteration #  3     ecut=    80.00 Ry     beta= 0.40
     Davidson diagonalization with overlap
     ethr =  2.03E-05,  avg # of iterations =  1.0

     total cpu time spent up to now is       31.7 secs

     total energy              =    -357.23784066 Ry
     estimated scf accuracy    <       0.00006398 Ry

     iteration #  4     ecut=    80.00 Ry     beta= 0.40
     Davidson diagonalization with overlap
     ethr =  2.29E-07,  avg # of iterations =  2.2

     total cpu time spent up to now is       39.7 secs

     total energy              =    -357.23785858 Ry
     estimated scf accuracy    <       0.00000481 Ry

     iteration #  5     ecut=    80.00 Ry     beta= 0.40
     Davidson diagonalization with overlap
     ethr =  1.72E-08,  avg # of iterations =  2.0

     total cpu time spent up to now is       47.5 secs

     total energy              =    -357.23785896 Ry
     estimated scf accuracy    <       0.00000117 Ry

     iteration #  6     ecut=    80.00 Ry     beta= 0.40
     Davidson diagonalization with overlap
     ethr =  4.18E-09,  avg # of iterations =  1.9

     total cpu time spent up to now is       53.7 secs

     End of self-consistent calculation

          k = 0.0000 0.0000 0.0000 (  5329 PWs)   bands (ev):

   -19.4305 -19.4305 -19.4305 -19.4178 -19.4178 -19.3434 -19.3434 -19.3383
   -19.3383 -19.3383  -5.3104   2.3052   5.1709   5.1709   5.1709   7.4721
     7.4721   7.4721

          k =-0.1250 0.1250-0.1250 (  5333 PWs)   bands (ev):

   -19.4333 -19.4333 -19.4295 -19.4140 -19.4140 -19.3483 -19.3483 -19.3394
   -19.3341 -19.3341  -5.1802   1.6431   4.9668   4.9668   5.2040   7.7610
     7.7610   7.8338

          k =-0.2500 0.2500-0.2500 (  5339 PWs)   bands (ev):

   -19.4370 -19.4370 -19.4268 -19.4081 -19.4081 -19.3542 -19.3542 -19.3422
   -19.3296 -19.3296  -4.8088   0.3761   4.6042   4.6042   4.9457   8.2531
     8.2531   9.0514

          k =-0.3750 0.3750-0.3750 (  5339 PWs)   bands (ev):

   -19.4392 -19.4392 -19.4240 -19.4041 -19.4041 -19.3580 -19.3580 -19.3451
   -19.3269 -19.3269  -4.2912  -0.8000   4.3342   4.3342   4.6529   8.5093
     8.5093  10.6844

          k = 0.5000-0.5000 0.5000 (  5342 PWs)   bands (ev):

   -19.4398 -19.4398 -19.4227 -19.4028 -19.4028 -19.3591 -19.3591 -19.3464
   -19.3261 -19.3261  -3.9789  -1.3466   4.2385   4.2385   4.5415   8.5559
     8.5559  11.5709

          k = 0.0000 0.2500 0.0000 (  5317 PWs)   bands (ev):

   -19.4328 -19.4328 -19.4324 -19.4148 -19.4099 -19.3541 -19.3461 -19.3355
   -19.3355 -19.3341  -5.1356   1.4951   4.6458   4.6458   5.9095   7.0134
     8.2210   8.2210

          k =-0.1250 0.3750-0.1250 (  5328 PWs)   bands (ev):

   -19.4379 -19.4358 -19.4286 -19.4101 -19.4030 -19.3613 -19.3510 -19.3388
   -19.3314 -19.3288  -4.8398   0.5436   4.1349   4.2700   6.1091   7.1944
     8.8197   9.0112

          k =-0.2500 0.5000-0.2500 (  5363 PWs)   bands (ev):

   -19.4420 -19.4388 -19.4229 -19.4046 -19.3986 -19.3653 -19.3566 -19.3450
   -19.3275 -19.3243  -4.3498  -0.5893   3.5917   4.0427   5.8908   7.9285
     9.0967   9.8422

          k = 0.6250-0.3750 0.6250 (  5345 PWs)   bands (ev):

   -19.4438 -19.4406 -19.4181 -19.4004 -19.3989 -19.3640 -19.3612 -19.3504
   -19.3252 -19.3221  -3.8988  -1.3742   3.2578   4.0244   5.7025   8.3580
     9.0198  10.9075

          k = 0.5000-0.2500 0.5000 (  5343 PWs)   bands (ev):

   -19.4430 -19.4412 -19.4177 -19.4026 -19.3987 -19.3633 -19.3592 -19.3514
   -19.3246 -19.3230  -4.0180  -1.1837   3.2050   4.2129   5.6657   8.5547
     8.7836  10.7397

          k = 0.3750-0.1250 0.3750 (  5341 PWs)   bands (ev):

   -19.4401 -19.4398 -19.4222 -19.4069 -19.4014 -19.3612 -19.3553 -19.3461
   -19.3269 -19.3260  -4.5318  -0.2179   3.4720   4.5568   5.7421   8.3823
     8.4323   9.5445

          k = 0.2500 0.0000 0.2500 (  5320 PWs)   bands (ev):

   -19.4371 -19.4352 -19.4277 -19.4114 -19.4078 -19.3551 -19.3511 -19.3399
   -19.3326 -19.3294  -4.9675   0.8917   4.1002   4.9098   5.6538   7.8332
     7.8816   8.8000

          k = 0.0000 0.5000 0.0000 (  5353 PWs)   bands (ev):

   -19.4377 -19.4377 -19.4308 -19.4066 -19.3941 -19.3715 -19.3540 -19.3355
   -19.3292 -19.3292  -4.6194   0.0706   3.8740   3.8740   6.3658   6.7506
     9.6361   9.6361

          k =-0.1250 0.6250-0.1250 (  5348 PWs)   bands (ev):

   -19.4425 -19.4402 -19.4240 -19.4006 -19.3870 -19.3788 -19.3599 -19.3426
   -19.3258 -19.3235  -4.1785  -0.7783   3.3226   3.6300   6.4308   7.0478
     9.8813  10.1557

          k = 0.7500-0.2500 0.7500 (  5355 PWs)   bands (ev):

   -19.4469 -19.4422 -19.4150 -19.3946 -19.3864 -19.3788 -19.3662 -19.3520
   -19.3233 -19.3188  -3.6540  -1.5761   2.7313   3.6098   6.3470   8.1423
     9.8642  10.1270

          k = 0.6250-0.1250 0.6250 (  5351 PWs)   bands (ev):

   -19.4481 -19.4431 -19.4106 -19.3928 -19.3908 -19.3713 -19.3706 -19.3569
   -19.3224 -19.3176  -3.5686  -1.6890   2.4702   3.8154   6.3241   8.9343
     9.7304  10.2153

          k = 0.5000 0.0000 0.5000 (  5324 PWs)   bands (ev):

   -19.4454 -19.4424 -19.4134 -19.4022 -19.3939 -19.3682 -19.3595 -19.3557
   -19.3233 -19.3208  -4.0549  -1.0056   2.6890   4.1882   6.2719   8.9872
     9.0618   9.4946

          k = 0.0000 0.7500 0.0000 (  5341 PWs)   bands (ev):

   -19.4421 -19.4421 -19.4228 -19.3943 -19.3908 -19.3759 -19.3658 -19.3440
   -19.3233 -19.3233  -3.7870  -1.3697   3.3445   3.3445   6.0479   6.5937
    11.1039  11.1040

          k = 0.8750-0.1250 0.8750 (  5355 PWs)   bands (ev):

   -19.4457 -19.4434 -19.4136 -19.3967 -19.3873 -19.3728 -19.3698 -19.3532
   -19.3216 -19.3196  -3.2411  -2.0650   2.8861   3.2807   6.2285   6.9089
    10.9972  11.3383

          k = 0.7500 0.0000 0.7500 (  5344 PWs)   bands (ev):

   -19.4489 -19.4438 -19.4086 -19.3887 -19.3837 -19.3770 -19.3769 -19.3583
   -19.3213 -19.3165  -3.0602  -2.2558   2.4164   3.4534   6.3079   8.3216
    10.4475  10.7736

          k = 0.0000-1.0000 0.0000 (  5346 PWs)   bands (ev):

   -19.4438 -19.4438 -19.4088 -19.4088 -19.3799 -19.3799 -19.3582 -19.3582
   -19.3210 -19.3210  -2.6827  -2.6827   3.1608   3.1608   6.1587   6.1587
    11.9093  11.9094

          k =-0.2500 0.5000 0.0000 (  5343 PWs)   bands (ev):

   -19.4406 -19.4403 -19.4235 -19.4055 -19.3958 -19.3688 -19.3556 -19.3438
   -19.3263 -19.3256  -4.4736  -0.2670   3.3521   4.1092   6.5400   7.2735
     9.3593   9.4379

          k = 0.6250-0.3750 0.8750 (  5345 PWs)   bands (ev):

   -19.4452 -19.4424 -19.4153 -19.4001 -19.3913 -19.3725 -19.3613 -19.3524
   -19.3234 -19.3207  -3.9515  -1.1728   2.8377   3.8209   6.5568   8.0270
     9.4308   9.9981

          k = 0.5000-0.2500 0.7500 (  5348 PWs)   bands (ev):

   -19.4471 -19.4431 -19.4115 -19.3960 -19.3917 -19.3713 -19.3663 -19.3561
   -19.3225 -19.3187  -3.6183  -1.6545   2.6720   3.6931   6.5078   8.3255
     9.6964  10.4130

          k = 0.7500-0.2500 1.0000 (  5344 PWs)   bands (ev):

   -19.4447 -19.4441 -19.4158 -19.3943 -19.3862 -19.3797 -19.3663 -19.3508
   -19.3215 -19.3209  -3.6877  -1.4990   2.9184   3.3237   6.9207   7.0271
     9.7831  10.9440

          k = 0.6250-0.1250 0.8750 (  5340 PWs)   bands (ev):

   -19.4483 -19.4451 -19.4065 -19.3888 -19.3863 -19.3784 -19.3730 -19.3599
   -19.3202 -19.3172  -3.2010  -2.0918   2.5250   3.2049   6.9716   8.2290
     9.6115  10.5146

          k = 0.5000 0.0000 0.7500 (  5345 PWs)   bands (ev):

   -19.4484 -19.4448 -19.4070 -19.3920 -19.3837 -19.3799 -19.3706 -19.3597
   -19.3207 -19.3172  -3.4204  -1.8355   2.4311   3.4321   6.9862   8.6275
     9.4291  10.2622

          k =-0.2500-1.0000 0.0000 (  5340 PWs)   bands (ev):

   -19.4460 -19.4460 -19.4028 -19.4028 -19.3802 -19.3802 -19.3636 -19.3636
   -19.3191 -19.3191  -2.6691  -2.6691   2.9042   2.9042   6.9023   6.9023
    10.9023  10.9023

          k =-0.5000-1.0000 0.0000 (  5360 PWs)   bands (ev):

   -19.4478 -19.4478 -19.3953 -19.3953 -19.3812 -19.3812 -19.3699 -19.3699
   -19.3175 -19.3175  -2.6553  -2.6553   2.6977   2.6977   8.0536   8.0536
     9.5197   9.5197

     the Fermi energy is     4.9430 ev

!    total energy              =    -357.23785903 Ry
     estimated scf accuracy    <       0.00000006 Ry
     smearing contrib. (-TS)   =      -0.00039045 Ry
     internal energy E=F+TS    =    -357.23746858 Ry

     The total energy is F=E-TS. E is the sum of the following terms:
     one-electron contribution =    -220.90146013 Ry
     hartree contribution      =     125.25752863 Ry
     xc contribution           =     -86.99607775 Ry
     ewald contribution        =    -174.59745934 Ry

     convergence has been achieved in   6 iterations

     Forces acting on atoms (cartesian axes, Ry/au):

     atom    1 type  1   force =     0.00000000    0.00000000   -0.00000000
     atom    2 type  1   force =     0.00000000    0.00000000    0.00000000
     The non-local contrib.  to forces
     atom    1 type  1   force =    -0.00000000   -0.00000000    0.00000000
     atom    2 type  1   force =    -0.00000000    0.00000000    0.00000000
     The ionic contribution  to forces
     atom    1 type  1   force =     0.00000000   -0.00000000   -0.00000000
     atom    2 type  1   force =    -0.00000000    0.00000000    0.00000000
     The local contribution  to forces
     atom    1 type  1   force =     0.00000000    0.00000000    0.00000000
     atom    2 type  1   force =    -0.00000000    0.00000000    0.00000000
     The core correction contribution to forces
     atom    1 type  1   force =    -0.00000000   -0.00000000    0.00000000
     atom    2 type  1   force =     0.00000000   -0.00000000   -0.00000000
     The Hubbard contrib.    to forces
     atom    1 type  1   force =     0.00000000    0.00000000    0.00000000
     atom    2 type  1   force =     0.00000000    0.00000000    0.00000000
     The SCF correction term to forces
     atom    1 type  1   force =    -0.00000000    0.00000000    0.00000000
     atom    2 type  1   force =    -0.00000000    0.00000000   -0.00000000

     Total force =     0.000000     Total SCF correction =     0.000000


     Computing stress (Cartesian axis) and pressure

          total   stress  (Ry/bohr**3)                   (kbar)     P=      -85.46
  -0.00058092  -0.00000000   0.00000000          -85.46       -0.00        0.00
   0.00000000  -0.00058092   0.00000000            0.00      -85.46        0.00
  -0.00000000   0.00000000  -0.00058092           -0.00        0.00      -85.46


     Writing all to output data dir ./Ge_out/Ge_scf.save/

     init_run     :      2.87s CPU      3.03s WALL (       1 calls)
     electrons    :     48.20s CPU     50.52s WALL (       1 calls)
     forces       :      0.34s CPU      0.35s WALL (       1 calls)
     stress       :      2.94s CPU      2.99s WALL (       1 calls)

     Called by init_run:
     wfcinit      :      2.27s CPU      2.39s WALL (       1 calls)
     potinit      :      0.09s CPU      0.10s WALL (       1 calls)
     hinit0       :      0.37s CPU      0.38s WALL (       1 calls)

     Called by electrons:
     c_bands      :     40.08s CPU     41.96s WALL (       7 calls)
     sum_band     :      7.71s CPU      8.04s WALL (       7 calls)
     v_of_rho     :      0.43s CPU      0.49s WALL (       7 calls)
     mix_rho      :      0.03s CPU      0.04s WALL (       7 calls)

     Called by c_bands:
     init_us_2    :      0.52s CPU      0.56s WALL (     493 calls)
     init_us_2:cp :      0.52s CPU      0.56s WALL (     493 calls)
     cegterg      :     38.63s CPU     40.31s WALL (     203 calls)

     Called by *egterg:
     cdiaghg      :      0.60s CPU      0.61s WALL (     625 calls)
     h_psi        :     37.58s CPU     39.27s WALL (     683 calls)
     g_psi        :      0.12s CPU      0.13s WALL (     451 calls)

     Called by h_psi:
     h_psi:calbec :      0.75s CPU      0.80s WALL (     683 calls)
     vloc_psi     :     36.03s CPU     37.65s WALL (     683 calls)
     add_vuspsi   :      0.70s CPU      0.72s WALL (     683 calls)

     General routines
     calbec       :      0.92s CPU      0.98s WALL (     828 calls)
     fft          :      0.51s CPU      0.54s WALL (      95 calls)
     ffts         :      0.02s CPU      0.02s WALL (       7 calls)
     fftw         :     37.04s CPU     38.73s WALL (   22838 calls)

     Parallel routines

     PWSCF        :     54.54s CPU     57.73s WALL


   This run was terminated on:  16:28: 5  26Apr2025            

=------------------------------------------------------------------------------=
   JOB DONE.
=------------------------------------------------------------------------------=
