
     Program PWSCF v.7.2 starts on 26Apr2025 at 16:19:52 

     This program is part of the open-source Quantum ESPRESSO suite
     for quantum simulation of materials; please cite
         "P. Giannozzi et al., J. Phys.:Condens. Matter 21 395502 (2009);
         "P. Giannozzi et al., J. Phys.:Condens. Matter 29 465901 (2017);
         "P. Giannozzi et al., J. Chem. Phys. 152 154105 (2020);
          URL http://www.quantum-espresso.org", 
     in publications or presentations arising from this work. More details at
     http://www.quantum-espresso.org/quote

     Parallel version (MPI), running on     4 processors

     MPI processes distributed on     1 nodes
     200840 MiB available memory on the printing compute node when the environment starts

     Waiting for input...
     Reading input from standard input
Warning: card &CELL ignored
Warning: card / ignored

     Current dimensions of program PWSCF are:
     Max number of different atomic species (ntypx) = 10
     Max number of k-points (npk) =  40000
     Max angular momentum in pseudopotentials (lmaxx) =  4

     R & G space division:  proc/nbgrp/npool/nimage =       4
     Subspace diagonalization in iterative solution of the eigenvalue problem:
     a serial algorithm will be used


     Parallelization info
     --------------------
     sticks:   dense  smooth     PW     G-vecs:    dense   smooth      PW
     Min         309     309     90                 7160     7160    1142
     Max         310     310     91                 7163     7163    1145
     Sum        1237    1237    361                28643    28643    4573

     Using Slab Decomposition



     bravais-lattice index     =            2
     lattice parameter (alat)  =      10.5825  a.u.
     unit-cell volume          =     296.2789 (a.u.)^3
     number of atoms/cell      =            2
     number of atomic types    =            1
     number of electrons       =        28.00
     number of Kohn-Sham states=           18
     kinetic-energy cutoff     =      80.0000  Ry
     charge density cutoff     =     320.0000  Ry
     scf convergence threshold =      1.0E-06
     mixing beta               =       0.4000
     number of iterations used =            8  plain     mixing
     Exchange-correlation= PBE
                           (   1   4   3   4   0   0   0)

     celldm(1)=  10.582466  celldm(2)=   0.000000  celldm(3)=   0.000000
     celldm(4)=   0.000000  celldm(5)=   0.000000  celldm(6)=   0.000000

     crystal axes: (cart. coord. in units of alat)
               a(1) = (  -0.500000   0.000000   0.500000 )  
               a(2) = (   0.000000   0.500000   0.500000 )  
               a(3) = (  -0.500000   0.500000   0.000000 )  

     reciprocal axes: (cart. coord. in units 2 pi/alat)
               b(1) = ( -1.000000 -1.000000  1.000000 )  
               b(2) = (  1.000000  1.000000  1.000000 )  
               b(3) = ( -1.000000  1.000000 -1.000000 )  


     PseudoPot. # 1 for Ge read from file:
     ./Ge.upf
     MD5 check sum: 087fa14d6c89b52166990835c3b338da
     Pseudo is Norm-conserving + core correction, Zval = 14.0
     Generated using ONCVPSP code by D. R. Hamann
     Using radial grid of 1560 points,  6 beta functions with: 
                l(1) =   0
                l(2) =   0
                l(3) =   1
                l(4) =   1
                l(5) =   2
                l(6) =   2

     atomic species   valence    mass     pseudopotential
        Ge            14.00    72.63000     Ge( 1.00)

     48 Sym. Ops., with inversion, found (24 have fractional translation)



   Cartesian axes

     site n.     atom                  positions (alat units)
         1           Ge  tau(   1) = (   0.0000000   0.0000000   0.0000000  )
         2           Ge  tau(   2) = (   0.2500000   0.2500000   0.2500000  )

     number of k points=    29  Gaussian smearing, width (Ry)=  0.0100
                       cart. coord. in units 2pi/alat
        k(    1) = (   0.0000000   0.0000000   0.0000000), wk =   0.0039062
        k(    2) = (  -0.1250000   0.1250000  -0.1250000), wk =   0.0312500
        k(    3) = (  -0.2500000   0.2500000  -0.2500000), wk =   0.0312500
        k(    4) = (  -0.3750000   0.3750000  -0.3750000), wk =   0.0312500
        k(    5) = (   0.5000000  -0.5000000   0.5000000), wk =   0.0156250
        k(    6) = (   0.0000000   0.2500000   0.0000000), wk =   0.0234375
        k(    7) = (  -0.1250000   0.3750000  -0.1250000), wk =   0.0937500
        k(    8) = (  -0.2500000   0.5000000  -0.2500000), wk =   0.0937500
        k(    9) = (   0.6250000  -0.3750000   0.6250000), wk =   0.0937500
        k(   10) = (   0.5000000  -0.2500000   0.5000000), wk =   0.0937500
        k(   11) = (   0.3750000  -0.1250000   0.3750000), wk =   0.0937500
        k(   12) = (   0.2500000   0.0000000   0.2500000), wk =   0.0468750
        k(   13) = (   0.0000000   0.5000000   0.0000000), wk =   0.0234375
        k(   14) = (  -0.1250000   0.6250000  -0.1250000), wk =   0.0937500
        k(   15) = (   0.7500000  -0.2500000   0.7500000), wk =   0.0937500
        k(   16) = (   0.6250000  -0.1250000   0.6250000), wk =   0.0937500
        k(   17) = (   0.5000000   0.0000000   0.5000000), wk =   0.0468750
        k(   18) = (   0.0000000   0.7500000   0.0000000), wk =   0.0234375
        k(   19) = (   0.8750000  -0.1250000   0.8750000), wk =   0.0937500
        k(   20) = (   0.7500000   0.0000000   0.7500000), wk =   0.0468750
        k(   21) = (   0.0000000  -1.0000000   0.0000000), wk =   0.0117188
        k(   22) = (  -0.2500000   0.5000000   0.0000000), wk =   0.0937500
        k(   23) = (   0.6250000  -0.3750000   0.8750000), wk =   0.1875000
        k(   24) = (   0.5000000  -0.2500000   0.7500000), wk =   0.0937500
        k(   25) = (   0.7500000  -0.2500000   1.0000000), wk =   0.0937500
        k(   26) = (   0.6250000  -0.1250000   0.8750000), wk =   0.1875000
        k(   27) = (   0.5000000   0.0000000   0.7500000), wk =   0.0937500
        k(   28) = (  -0.2500000  -1.0000000   0.0000000), wk =   0.0468750
        k(   29) = (  -0.5000000  -1.0000000   0.0000000), wk =   0.0234375

     Dense  grid:    28643 G-vectors     FFT dimensions: (  48,  48,  48)

     Estimated max dynamical RAM per process >      15.23 MB

     Estimated total dynamical RAM >      60.92 MB

     Initial potential from superposition of free atoms

     starting charge      27.9984, renormalised to      28.0000
     Starting wfcs are   18 randomized atomic wfcs

     total cpu time spent up to now is        1.9 secs

     Self-consistent Calculation

     iteration #  1     ecut=    80.00 Ry     beta= 0.40
     Davidson diagonalization with overlap
     ethr =  1.00E-02,  avg # of iterations =  3.9

     Threshold (ethr) on eigenvalues was too large:
     Diagonalizing with lowered threshold

     Davidson diagonalization with overlap
     ethr =  1.19E-04,  avg # of iterations =  3.7

     total cpu time spent up to now is       10.1 secs

     total energy              =    -357.28053141 Ry
     estimated scf accuracy    <       0.03588384 Ry

     iteration #  2     ecut=    80.00 Ry     beta= 0.40
     Davidson diagonalization with overlap
     ethr =  1.28E-04,  avg # of iterations =  1.0

     total cpu time spent up to now is       13.1 secs

     total energy              =    -357.27898832 Ry
     estimated scf accuracy    <       0.01090849 Ry

     iteration #  3     ecut=    80.00 Ry     beta= 0.40
     Davidson diagonalization with overlap
     ethr =  3.90E-05,  avg # of iterations =  1.7

     total cpu time spent up to now is       16.3 secs

     total energy              =    -357.27959186 Ry
     estimated scf accuracy    <       0.00012605 Ry

     iteration #  4     ecut=    80.00 Ry     beta= 0.40
     Davidson diagonalization with overlap
     ethr =  4.50E-07,  avg # of iterations =  3.1

     total cpu time spent up to now is       20.4 secs

     total energy              =    -357.27961661 Ry
     estimated scf accuracy    <       0.00000842 Ry

     iteration #  5     ecut=    80.00 Ry     beta= 0.40
     Davidson diagonalization with overlap
     ethr =  3.01E-08,  avg # of iterations =  1.9

     total cpu time spent up to now is       23.6 secs

     End of self-consistent calculation

          k = 0.0000 0.0000 0.0000 (  3527 PWs)   bands (ev):

   -14.9080 -14.9080 -14.9080 -14.8705 -14.8705 -14.6427 -14.6427 -14.6427
   -14.6272 -14.6272  -3.0082  10.0033  10.0033  10.0033  10.3217  12.5686
    12.5686  12.5686

          k =-0.1250 0.1250-0.1250 (  3599 PWs)   bands (ev):

   -14.9169 -14.9169 -14.9053 -14.8580 -14.8580 -14.6553 -14.6553 -14.6458
   -14.6166 -14.6166  -2.8123   7.6851   9.6542   9.6542  11.1873  13.0336
    13.0336  13.5959

          k =-0.2500 0.2500-0.2500 (  3596 PWs)   bands (ev):

   -14.9278 -14.9278 -14.8988 -14.8394 -14.8394 -14.6700 -14.6700 -14.6536
   -14.6056 -14.6056  -2.2430   5.2424   9.0886   9.0886  10.7816  13.6745
    13.6745  15.8240

          k =-0.3750 0.3750-0.3750 (  3591 PWs)   bands (ev):

   -14.9330 -14.9330 -14.8921 -14.8282 -14.8282 -14.6775 -14.6775 -14.6615
   -14.5999 -14.5999  -1.4052   3.2227   8.6898   8.6898  10.4117  13.8035
    13.8035  17.3148

          k = 0.5000-0.5000 0.5000 (  3600 PWs)   bands (ev):

   -14.9343 -14.9343 -14.8893 -14.8253 -14.8253 -14.6792 -14.6792 -14.6648
   -14.5983 -14.5983  -0.8419   2.2578   8.5513   8.5513  10.2808  13.7584
    13.7584  17.1606

          k = 0.0000 0.2500 0.0000 (  3599 PWs)   bands (ev):

   -14.9167 -14.9141 -14.9141 -14.8608 -14.8445 -14.6797 -14.6361 -14.6332
   -14.6332 -14.6114  -2.7460   7.6890   9.0914   9.0914  11.9027  12.4522
    13.8101  13.8101

          k =-0.1250 0.3750-0.1250 (  3587 PWs)   bands (ev):

   -14.9311 -14.9229 -14.9051 -14.8455 -14.8229 -14.7019 -14.6543 -14.6363
   -14.6167 -14.6015  -2.2966   5.8239   8.4452   8.5105  11.9543  12.7454
    14.6591  14.9365

          k =-0.2500 0.5000-0.2500 (  3566 PWs)   bands (ev):

   -14.9427 -14.9311 -14.8892 -14.8291 -14.8098 -14.7111 -14.6712 -14.6532
   -14.6041 -14.5899  -1.5242   3.7959   7.7540   8.1863  11.7061  13.3654
    14.8124  15.6797

          k = 0.6250-0.3750 0.6250 (  3586 PWs)   bands (ev):

   -14.9474 -14.9366 -14.8757 -14.8166 -14.8124 -14.7023 -14.6857 -14.6700
   -14.5954 -14.5849  -0.7447   2.4053   7.2828   8.1854  11.4865  13.5668
    14.5126  17.2988

          k = 0.5000-0.2500 0.5000 (  3584 PWs)   bands (ev):

   -14.9447 -14.9395 -14.8737 -14.8242 -14.8103 -14.6958 -14.6807 -14.6787
   -14.5913 -14.5892  -0.9598   2.7490   7.1304   8.4969  11.5126  13.8007
    14.2110  17.5182

          k = 0.3750-0.1250 0.3750 (  3582 PWs)   bands (ev):

   -14.9377 -14.9349 -14.8858 -14.8367 -14.8173 -14.6936 -14.6773 -14.6543
   -14.6029 -14.5931  -1.8136   4.4399   7.3686   9.0455  11.7526  13.8150
    14.0165  15.8310

          k = 0.2500 0.0000 0.2500 (  3589 PWs)   bands (ev):

   -14.9292 -14.9211 -14.9013 -14.8501 -14.8374 -14.6774 -14.6667 -14.6322
   -14.6233 -14.6017  -2.4899   6.3862   8.1925   9.6096  11.8667  13.1532
    13.3387  14.9144

          k = 0.0000 0.5000 0.0000 (  3591 PWs)   bands (ev):

   -14.9275 -14.9275 -14.9159 -14.8333 -14.7951 -14.7368 -14.6614 -14.6138
   -14.6116 -14.6116  -1.9677   5.2980   7.8901   7.8901  10.9899  12.8230
    15.9631  15.9631

          k =-0.1250 0.6250-0.1250 (  3574 PWs)   bands (ev):

   -14.9435 -14.9347 -14.8952 -14.8143 -14.7735 -14.7589 -14.6807 -14.6392
   -14.5994 -14.5896  -1.2877   3.8918   7.0478   7.5294  11.2574  12.7489
    15.8888  16.5901

          k = 0.7500-0.2500 0.7500 (  3578 PWs)   bands (ev):

   -14.9572 -14.9407 -14.8684 -14.7957 -14.7746 -14.7544 -14.7020 -14.6682
   -14.5897 -14.5740  -0.4261   2.5298   6.1525   7.5156  11.4117  14.3289
    15.5293  16.3148

          k = 0.6250-0.1250 0.6250 (  3577 PWs)   bands (ev):

   -14.9606 -14.9445 -14.8546 -14.7935 -14.7834 -14.7309 -14.7188 -14.6826
   -14.5847 -14.5708  -0.2548   2.3071   5.7125   7.8480  11.6399  15.1632
    15.7565  16.9373

          k = 0.5000 0.0000 0.5000 (  3583 PWs)   bands (ev):

   -14.9519 -14.9441 -14.8610 -14.8226 -14.7924 -14.7148 -14.6941 -14.6794
   -14.5856 -14.5822  -1.0621   3.4144   5.9998   8.4453  12.0286  14.8685
    15.2309  15.4178

          k = 0.0000 0.7500 0.0000 (  3563 PWs)   bands (ev):

   -14.9396 -14.9396 -14.8947 -14.7983 -14.7928 -14.7385 -14.6997 -14.6395
   -14.5913 -14.5913  -0.7012   3.0358   7.0947   7.0947  10.5380  11.5546
    18.2439  18.2441

          k = 0.8750-0.1250 0.8750 (  3569 PWs)   bands (ev):

   -14.9518 -14.9434 -14.8665 -14.8153 -14.7705 -14.7228 -14.7203 -14.6692
   -14.5849 -14.5775   0.1563   1.9562   6.3096   7.0045  10.8666  11.9475
    18.1078  18.5000

          k = 0.7500 0.0000 0.7500 (  3568 PWs)   bands (ev):

   -14.9629 -14.9455 -14.8510 -14.7872 -14.7586 -14.7441 -14.7384 -14.6849
   -14.5825 -14.5669   0.5220   1.6025   5.5063   7.2765  11.1391  14.1498
    17.4167  17.5368

          k = 0.0000-1.0000 0.0000 (  3572 PWs)   bands (ev):

   -14.9442 -14.9442 -14.8538 -14.8538 -14.7458 -14.7458 -14.6837 -14.6837
   -14.5832 -14.5832   0.9973   0.9973   6.8211   6.8211  10.7107  10.7107
    19.7764  19.7765

          k =-0.2500 0.5000 0.0000 (  3593 PWs)   bands (ev):

   -14.9392 -14.9361 -14.8904 -14.8313 -14.7999 -14.7254 -14.6684 -14.6479
   -14.6015 -14.5927  -1.7341   4.6111   7.0434   8.3318  12.3828  12.9511
    14.6707  15.6593

          k = 0.6250-0.3750 0.8750 (  3577 PWs)   bands (ev):

   -14.9517 -14.9432 -14.8670 -14.8151 -14.7863 -14.7345 -14.6861 -14.6741
   -14.5884 -14.5806  -0.8979   3.1048   6.3433   7.8306  12.5444  13.4671
    14.9692  16.2628

          k = 0.5000-0.2500 0.7500 (  3600 PWs)   bands (ev):

   -14.9573 -14.9446 -14.8565 -14.8032 -14.7880 -14.7288 -14.7044 -14.6822
   -14.5857 -14.5741  -0.3150   2.2429   6.1628   7.6055  12.4898  13.4100
    15.9118  17.1032

          k = 0.7500-0.2500 1.0000 (  3589 PWs)   bands (ev):

   -14.9486 -14.9480 -14.8705 -14.7943 -14.7817 -14.7503 -14.7018 -14.6644
   -14.5826 -14.5825  -0.5227   2.8178   6.3732   7.0028  11.8883  12.5759
    15.7053  18.1264

          k = 0.6250-0.1250 0.8750 (  3583 PWs)   bands (ev):

   -14.9609 -14.9507 -14.8427 -14.7834 -14.7741 -14.7467 -14.7256 -14.6908
   -14.5786 -14.5691   0.2841   1.8780   5.7135   6.8031  12.3191  14.3099
    15.1766  17.2499

          k = 0.5000 0.0000 0.7500 (  3583 PWs)   bands (ev):

   -14.9613 -14.9502 -14.8433 -14.7899 -14.7609 -14.7577 -14.7212 -14.6903
   -14.5793 -14.5694  -0.0526   2.2483   5.5569   7.1778  12.7228  14.6049
    15.0630  16.9284

          k =-0.2500-1.0000 0.0000 (  3572 PWs)   bands (ev):

   -14.9527 -14.9527 -14.8329 -14.8329 -14.7478 -14.7478 -14.7014 -14.7014
   -14.5759 -14.5759   1.0495   1.0495   6.3325   6.3325  11.9418  11.9418
    17.7804  17.7804

          k =-0.5000-1.0000 0.0000 (  3552 PWs)   bands (ev):

   -14.9595 -14.9595 -14.8074 -14.8074 -14.7545 -14.7545 -14.7194 -14.7194
   -14.5699 -14.5699   1.1048   1.1048   5.9512   5.9512  14.4543  14.4543
    14.7372  14.7372

     the Fermi energy is    10.1310 ev

!    total energy              =    -357.27961647 Ry
     estimated scf accuracy    <       0.00000100 Ry
     smearing contrib. (-TS)   =      -0.00002963 Ry
     internal energy E=F+TS    =    -357.27958684 Ry

     The total energy is F=E-TS. E is the sum of the following terms:
     one-electron contribution =    -179.86968028 Ry
     hartree contribution      =     109.48109645 Ry
     xc contribution           =     -87.35104948 Ry
     ewald contribution        =    -199.53995353 Ry

     convergence has been achieved in   5 iterations

     Forces acting on atoms (cartesian axes, Ry/au):

     atom    1 type  1   force =     0.00000000    0.00000000    0.00000000
     atom    2 type  1   force =     0.00000000    0.00000000    0.00000000
     The non-local contrib.  to forces
     atom    1 type  1   force =     0.00000000    0.00000000    0.00000000
     atom    2 type  1   force =     0.00000000    0.00000000    0.00000000
     The ionic contribution  to forces
     atom    1 type  1   force =    -0.00000000    0.00000000    0.00000000
     atom    2 type  1   force =    -0.00000000   -0.00000000   -0.00000000
     The local contribution  to forces
     atom    1 type  1   force =    -0.00000000    0.00000000    0.00000000
     atom    2 type  1   force =     0.00000000   -0.00000000    0.00000000
     The core correction contribution to forces
     atom    1 type  1   force =    -0.00000000   -0.00000000    0.00000000
     atom    2 type  1   force =     0.00000000   -0.00000000   -0.00000000
     The Hubbard contrib.    to forces
     atom    1 type  1   force =     0.00000000    0.00000000    0.00000000
     atom    2 type  1   force =     0.00000000    0.00000000    0.00000000
     The SCF correction term to forces
     atom    1 type  1   force =     0.00000000    0.00000000    0.00000000
     atom    2 type  1   force =     0.00000000    0.00000000    0.00000000

     Total force =     0.000000     Total SCF correction =     0.000000


     Computing stress (Cartesian axis) and pressure

          total   stress  (Ry/bohr**3)                   (kbar)     P=       57.98
   0.00039411   0.00000000   0.00000000           57.98        0.00        0.00
   0.00000000   0.00039411  -0.00000000            0.00       57.98       -0.00
   0.00000000  -0.00000000   0.00039411            0.00       -0.00       57.98


     Writing all to output data dir ./Ge_out/Ge_scf.save/

     init_run     :      1.56s CPU      1.66s WALL (       1 calls)
     electrons    :     20.56s CPU     21.77s WALL (       1 calls)
     forces       :      0.21s CPU      0.23s WALL (       1 calls)
     stress       :      1.93s CPU      1.96s WALL (       1 calls)

     Called by init_run:
     wfcinit      :      1.12s CPU      1.20s WALL (       1 calls)
     potinit      :      0.05s CPU      0.05s WALL (       1 calls)
     hinit0       :      0.32s CPU      0.33s WALL (       1 calls)

     Called by electrons:
     c_bands      :     17.29s CPU     18.27s WALL (       6 calls)
     sum_band     :      3.10s CPU      3.27s WALL (       6 calls)
     v_of_rho     :      0.18s CPU      0.21s WALL (       6 calls)
     mix_rho      :      0.01s CPU      0.02s WALL (       6 calls)

     Called by c_bands:
     init_us_2    :      0.29s CPU      0.32s WALL (     435 calls)
     init_us_2:cp :      0.29s CPU      0.32s WALL (     435 calls)
     cegterg      :     16.47s CPU     17.32s WALL (     174 calls)

     Called by *egterg:
     cdiaghg      :      0.52s CPU      0.53s WALL (     589 calls)
     h_psi        :     15.47s CPU     16.32s WALL (     647 calls)
     g_psi        :      0.07s CPU      0.07s WALL (     444 calls)

     Called by h_psi:
     h_psi:calbec :      0.43s CPU      0.46s WALL (     647 calls)
     vloc_psi     :     14.55s CPU     15.37s WALL (     647 calls)
     add_vuspsi   :      0.42s CPU      0.43s WALL (     647 calls)

     General routines
     calbec       :      0.55s CPU      0.59s WALL (     792 calls)
     fft          :      0.36s CPU      0.37s WALL (      85 calls)
     ffts         :      0.01s CPU      0.01s WALL (       6 calls)
     fftw         :     15.48s CPU     16.33s WALL (   19578 calls)

     Parallel routines

     PWSCF        :     24.43s CPU     26.25s WALL


   This run was terminated on:  16:20:18  26Apr2025            

=------------------------------------------------------------------------------=
   JOB DONE.
=------------------------------------------------------------------------------=
