
     Program PWSCF v.7.2 starts on 26Apr2025 at 16:21:42 

     This program is part of the open-source Quantum ESPRESSO suite
     for quantum simulation of materials; please cite
         "P. Giannozzi et al., J. Phys.:Condens. Matter 21 395502 (2009);
         "P. Giannozzi et al., J. Phys.:Condens. Matter 29 465901 (2017);
         "P. Giannozzi et al., J. Chem. Phys. 152 154105 (2020);
          URL http://www.quantum-espresso.org", 
     in publications or presentations arising from this work. More details at
     http://www.quantum-espresso.org/quote

     Parallel version (MPI), running on     4 processors

     MPI processes distributed on     1 nodes
     200848 MiB available memory on the printing compute node when the environment starts

     Waiting for input...
     Reading input from standard input
Warning: card &CELL ignored
Warning: card / ignored

     Current dimensions of program PWSCF are:
     Max number of different atomic species (ntypx) = 10
     Max number of k-points (npk) =  40000
     Max angular momentum in pseudopotentials (lmaxx) =  4

     R & G space division:  proc/nbgrp/npool/nimage =       4
     Subspace diagonalization in iterative solution of the eigenvalue problem:
     a serial algorithm will be used


     Parallelization info
     --------------------
     sticks:   dense  smooth     PW     G-vecs:    dense   smooth      PW
     Min         321     321     94                 7729     7729    1238
     Max         322     322     95                 7734     7734    1240
     Sum        1285    1285    379                30923    30923    4957

     Using Slab Decomposition



     bravais-lattice index     =            2
     lattice parameter (alat)  =      10.8848  a.u.
     unit-cell volume          =     322.4067 (a.u.)^3
     number of atoms/cell      =            2
     number of atomic types    =            1
     number of electrons       =        28.00
     number of Kohn-Sham states=           18
     kinetic-energy cutoff     =      80.0000  Ry
     charge density cutoff     =     320.0000  Ry
     scf convergence threshold =      1.0E-06
     mixing beta               =       0.4000
     number of iterations used =            8  plain     mixing
     Exchange-correlation= PBE
                           (   1   4   3   4   0   0   0)

     celldm(1)=  10.884822  celldm(2)=   0.000000  celldm(3)=   0.000000
     celldm(4)=   0.000000  celldm(5)=   0.000000  celldm(6)=   0.000000

     crystal axes: (cart. coord. in units of alat)
               a(1) = (  -0.500000   0.000000   0.500000 )  
               a(2) = (   0.000000   0.500000   0.500000 )  
               a(3) = (  -0.500000   0.500000   0.000000 )  

     reciprocal axes: (cart. coord. in units 2 pi/alat)
               b(1) = ( -1.000000 -1.000000  1.000000 )  
               b(2) = (  1.000000  1.000000  1.000000 )  
               b(3) = ( -1.000000  1.000000 -1.000000 )  


     PseudoPot. # 1 for Ge read from file:
     ./Ge.upf
     MD5 check sum: 087fa14d6c89b52166990835c3b338da
     Pseudo is Norm-conserving + core correction, Zval = 14.0
     Generated using ONCVPSP code by D. R. Hamann
     Using radial grid of 1560 points,  6 beta functions with: 
                l(1) =   0
                l(2) =   0
                l(3) =   1
                l(4) =   1
                l(5) =   2
                l(6) =   2

     atomic species   valence    mass     pseudopotential
        Ge            14.00    72.63000     Ge( 1.00)

     48 Sym. Ops., with inversion, found (24 have fractional translation)



   Cartesian axes

     site n.     atom                  positions (alat units)
         1           Ge  tau(   1) = (   0.0000000   0.0000000   0.0000000  )
         2           Ge  tau(   2) = (   0.2500000   0.2500000   0.2500000  )

     number of k points=    29  Gaussian smearing, width (Ry)=  0.0100
                       cart. coord. in units 2pi/alat
        k(    1) = (   0.0000000   0.0000000   0.0000000), wk =   0.0039062
        k(    2) = (  -0.1250000   0.1250000  -0.1250000), wk =   0.0312500
        k(    3) = (  -0.2500000   0.2500000  -0.2500000), wk =   0.0312500
        k(    4) = (  -0.3750000   0.3750000  -0.3750000), wk =   0.0312500
        k(    5) = (   0.5000000  -0.5000000   0.5000000), wk =   0.0156250
        k(    6) = (   0.0000000   0.2500000   0.0000000), wk =   0.0234375
        k(    7) = (  -0.1250000   0.3750000  -0.1250000), wk =   0.0937500
        k(    8) = (  -0.2500000   0.5000000  -0.2500000), wk =   0.0937500
        k(    9) = (   0.6250000  -0.3750000   0.6250000), wk =   0.0937500
        k(   10) = (   0.5000000  -0.2500000   0.5000000), wk =   0.0937500
        k(   11) = (   0.3750000  -0.1250000   0.3750000), wk =   0.0937500
        k(   12) = (   0.2500000   0.0000000   0.2500000), wk =   0.0468750
        k(   13) = (   0.0000000   0.5000000   0.0000000), wk =   0.0234375
        k(   14) = (  -0.1250000   0.6250000  -0.1250000), wk =   0.0937500
        k(   15) = (   0.7500000  -0.2500000   0.7500000), wk =   0.0937500
        k(   16) = (   0.6250000  -0.1250000   0.6250000), wk =   0.0937500
        k(   17) = (   0.5000000   0.0000000   0.5000000), wk =   0.0468750
        k(   18) = (   0.0000000   0.7500000   0.0000000), wk =   0.0234375
        k(   19) = (   0.8750000  -0.1250000   0.8750000), wk =   0.0937500
        k(   20) = (   0.7500000   0.0000000   0.7500000), wk =   0.0468750
        k(   21) = (   0.0000000  -1.0000000   0.0000000), wk =   0.0117188
        k(   22) = (  -0.2500000   0.5000000   0.0000000), wk =   0.0937500
        k(   23) = (   0.6250000  -0.3750000   0.8750000), wk =   0.1875000
        k(   24) = (   0.5000000  -0.2500000   0.7500000), wk =   0.0937500
        k(   25) = (   0.7500000  -0.2500000   1.0000000), wk =   0.0937500
        k(   26) = (   0.6250000  -0.1250000   0.8750000), wk =   0.1875000
        k(   27) = (   0.5000000   0.0000000   0.7500000), wk =   0.0937500
        k(   28) = (  -0.2500000  -1.0000000   0.0000000), wk =   0.0468750
        k(   29) = (  -0.5000000  -1.0000000   0.0000000), wk =   0.0234375

     Dense  grid:    30923 G-vectors     FFT dimensions: (  48,  48,  48)

     Estimated max dynamical RAM per process >      16.25 MB

     Estimated total dynamical RAM >      64.99 MB

     Initial potential from superposition of free atoms

     starting charge      27.9984, renormalised to      28.0000
     Starting wfcs are   18 randomized atomic wfcs

     total cpu time spent up to now is        1.9 secs

     Self-consistent Calculation

     iteration #  1     ecut=    80.00 Ry     beta= 0.40
     Davidson diagonalization with overlap
     ethr =  1.00E-02,  avg # of iterations =  3.9

     Threshold (ethr) on eigenvalues was too large:
     Diagonalizing with lowered threshold

     Davidson diagonalization with overlap
     ethr =  1.04E-04,  avg # of iterations =  3.9

     total cpu time spent up to now is       10.4 secs

     total energy              =    -357.28553286 Ry
     estimated scf accuracy    <       0.03134082 Ry

     iteration #  2     ecut=    80.00 Ry     beta= 0.40
     Davidson diagonalization with overlap
     ethr =  1.12E-04,  avg # of iterations =  1.0

     total cpu time spent up to now is       13.5 secs

     total energy              =    -357.28436863 Ry
     estimated scf accuracy    <       0.00970982 Ry

     iteration #  3     ecut=    80.00 Ry     beta= 0.40
     Davidson diagonalization with overlap
     ethr =  3.47E-05,  avg # of iterations =  1.2

     total cpu time spent up to now is       16.6 secs

     total energy              =    -357.28485962 Ry
     estimated scf accuracy    <       0.00011116 Ry

     iteration #  4     ecut=    80.00 Ry     beta= 0.40
     Davidson diagonalization with overlap
     ethr =  3.97E-07,  avg # of iterations =  3.2

     total cpu time spent up to now is       21.0 secs

     total energy              =    -357.28488234 Ry
     estimated scf accuracy    <       0.00000866 Ry

     iteration #  5     ecut=    80.00 Ry     beta= 0.40
     Davidson diagonalization with overlap
     ethr =  3.09E-08,  avg # of iterations =  1.7

     total cpu time spent up to now is       24.1 secs

     End of self-consistent calculation

          k = 0.0000 0.0000 0.0000 (  3839 PWs)   bands (ev):

   -15.9712 -15.9712 -15.9712 -15.9408 -15.9408 -15.7566 -15.7566 -15.7566
   -15.7491 -15.7491  -3.5644   8.3616   8.8098   8.8098   8.8098  11.3384
    11.3384  11.3384

          k =-0.1250 0.1250-0.1250 (  3864 PWs)   bands (ev):

   -15.9782 -15.9782 -15.9690 -15.9310 -15.9310 -15.7687 -15.7687 -15.7591
   -15.7386 -15.7386  -3.3839   6.3661   8.4987   8.4987   9.6174  11.7590
    11.7590  12.1415

          k =-0.2500 0.2500-0.2500 (  3879 PWs)   bands (ev):

   -15.9870 -15.9870 -15.9635 -15.9162 -15.9162 -15.7814 -15.7814 -15.7653
   -15.7290 -15.7290  -2.8613   4.1502   7.9831   7.9831   9.3060  12.3708
    12.3708  14.1437

          k =-0.3750 0.3750-0.3750 (  3870 PWs)   bands (ev):

   -15.9915 -15.9915 -15.9579 -15.9070 -15.9070 -15.7883 -15.7883 -15.7717
   -15.7239 -15.7239  -2.1015   2.3121   7.6151   7.6151   8.9598  12.5415
    12.5416  15.9579

          k = 0.5000-0.5000 0.5000 (  3852 PWs)   bands (ev):

   -15.9927 -15.9927 -15.9555 -15.9045 -15.9045 -15.7900 -15.7900 -15.7744
   -15.7224 -15.7224  -1.6043   1.4473   7.4868   7.4868   8.8338  12.5207
    12.5208  15.9185

          k = 0.0000 0.2500 0.0000 (  3871 PWs)   bands (ev):

   -15.9776 -15.9762 -15.9762 -15.9332 -15.9204 -15.7874 -15.7561 -15.7492
   -15.7492 -15.7350  -3.3227   6.2811   7.9984   7.9984  10.7205  10.7428
    12.4559  12.4559

          k =-0.1250 0.3750-0.1250 (  3892 PWs)   bands (ev):

   -15.9895 -15.9834 -15.9684 -15.9211 -15.9032 -15.8052 -15.7700 -15.7526
   -15.7368 -15.7261  -2.9093   4.6205   7.3706   7.4675  10.6291  11.2674
    13.2499  13.5385

          k =-0.2500 0.5000-0.2500 (  3877 PWs)   bands (ev):

   -15.9990 -15.9901 -15.9554 -15.9079 -15.8926 -15.8131 -15.7836 -15.7666
   -15.7268 -15.7162  -2.2046   2.7952   6.7134   7.1662  10.2948  12.0359
    13.4471  14.3205

          k = 0.6250-0.3750 0.6250 (  3892 PWs)   bands (ev):

   -16.0030 -15.9946 -15.9445 -15.8978 -15.8944 -15.8066 -15.7951 -15.7801
   -15.7202 -15.7120  -1.5091   1.5486   6.2778   7.1601  10.0648  12.3158
    13.2059  15.8245

          k = 0.5000-0.2500 0.5000 (  3896 PWs)   bands (ev):

   -16.0009 -15.9967 -15.9431 -15.9037 -15.8930 -15.8026 -15.7903 -15.7864
   -15.7173 -15.7151  -1.6988   1.8544   6.1515   7.4403  10.0669  12.5502
    12.9195  15.9562

          k = 0.3750-0.1250 0.3750 (  3887 PWs)   bands (ev):

   -15.9949 -15.9931 -15.9530 -15.9138 -15.8988 -15.8000 -15.7859 -15.7687
   -15.7257 -15.7192  -2.4681   3.3762   6.4008   7.9373  10.2630  12.5128
    12.6866  14.3180

          k = 0.2500 0.0000 0.2500 (  3865 PWs)   bands (ev):

   -15.9880 -15.9819 -15.9655 -15.9247 -15.9148 -15.7865 -15.7772 -15.7515
   -15.7414 -15.7265  -3.0872   5.1403   7.1871   8.4482  10.2993  11.8830
    12.0014  13.4091

          k = 0.0000 0.5000 0.0000 (  3895 PWs)   bands (ev):

   -15.9873 -15.9873 -15.9762 -15.9116 -15.8811 -15.8326 -15.7761 -15.7369
   -15.7323 -15.7323  -2.6056   4.0704   6.9025   6.9025   9.8700  11.4114
    14.4368  14.4368

          k =-0.1250 0.6250-0.1250 (  3902 PWs)   bands (ev):

   -15.9998 -15.9932 -15.9597 -15.8965 -15.8637 -15.8504 -15.7913 -15.7564
   -15.7229 -15.7157  -1.9822   2.7922   6.1282   6.5700  10.1071  11.4196
    14.3891  15.0531

          k = 0.7500-0.2500 0.7500 (  3897 PWs)   bands (ev):

   -16.0108 -15.9980 -15.9382 -15.8817 -15.8640 -15.8475 -15.8080 -15.7795
   -15.7155 -15.7034  -1.2037   1.5684   5.3028   6.5541  10.2223  12.8507
    14.1223  14.8485

          k = 0.6250-0.1250 0.6250 (  3906 PWs)   bands (ev):

   -16.0136 -16.0008 -15.9273 -15.8794 -15.8720 -15.8286 -15.8208 -15.7913
   -15.7119 -15.7007  -1.0559   1.3746   4.9076   6.8549  10.3904  13.6420
    14.3246  15.3483

          k = 0.5000 0.0000 0.5000 (  3891 PWs)   bands (ev):

   -16.0066 -16.0002 -15.9328 -15.9025 -15.8793 -15.8170 -15.7981 -15.7899
   -15.7131 -15.7095  -1.7826   2.3789   5.1837   7.3960  10.6599  13.4770
    13.7377  13.9559

          k = 0.0000 0.7500 0.0000 (  3928 PWs)   bands (ev):

   -15.9972 -15.9972 -15.9586 -15.8813 -15.8797 -15.8360 -15.8064 -15.7573
   -15.7166 -15.7166  -1.4407   1.9890   6.1718   6.1718   9.4534  10.3987
    16.5348  16.5348

          k = 0.8750-0.1250 0.8750 (  3917 PWs)   bands (ev):

   -16.0067 -16.0003 -15.9362 -15.8952 -15.8621 -15.8246 -15.8214 -15.7807
   -15.7117 -15.7060  -0.6577   0.9971   5.4694   6.0880   9.7598  10.7540
    16.3708  16.8032

          k = 0.7500 0.0000 0.7500 (  3887 PWs)   bands (ev):

   -16.0155 -16.0019 -15.9238 -15.8733 -15.8527 -15.8401 -15.8365 -15.7932
   -15.7100 -15.6977  -0.3426   0.6855   4.7502   6.3354   9.9951  12.7837
    15.7030  15.9285

          k = 0.0000-1.0000 0.0000 (  3892 PWs)   bands (ev):

   -16.0011 -16.0011 -15.9256 -15.9256 -15.8427 -15.8427 -15.7924 -15.7924
   -15.7103 -15.7103   0.1185   0.1185   5.9202   5.9202   9.6233   9.6233
    17.8842  17.8842

          k =-0.2500 0.5000 0.0000 (  3893 PWs)   bands (ev):

   -15.9961 -15.9941 -15.9565 -15.9097 -15.8850 -15.8239 -15.7812 -15.7627
   -15.7245 -15.7187  -2.3932   3.4742   6.1348   7.2892  11.1495  11.3795
    13.4340  14.1606

          k = 0.6250-0.3750 0.8750 (  3896 PWs)   bands (ev):

   -16.0064 -15.9996 -15.9375 -15.8967 -15.8741 -15.8316 -15.7954 -15.7835
   -15.7148 -15.7085  -1.6331   2.1090   5.4708   6.8442  11.1181  12.1583
    13.6299  14.7709

          k = 0.5000-0.2500 0.7500 (  3906 PWs)   bands (ev):

   -16.0109 -16.0009 -15.9289 -15.8870 -15.8754 -15.8273 -15.8095 -15.7907
   -15.7127 -15.7033  -1.1151   1.3442   5.2883   6.6448  11.0408  12.2125
    14.4045  15.5089

          k = 0.7500-0.2500 1.0000 (  3924 PWs)   bands (ev):

   -16.0042 -16.0035 -15.9399 -15.8807 -15.8685 -15.8454 -15.8079 -15.7765
   -15.7102 -15.7097  -1.2824   1.7915   5.5230   6.1006  10.6938  11.2926
    14.2349  16.4046

          k = 0.6250-0.1250 0.8750 (  3893 PWs)   bands (ev):

   -16.0139 -16.0058 -15.9176 -15.8706 -15.8641 -15.8425 -15.8263 -15.7978
   -15.7070 -15.6994  -0.5558   0.9336   4.9300   5.9209  11.0649  12.8815
    13.8002  15.6297

          k = 0.5000 0.0000 0.7500 (  3894 PWs)   bands (ev):

   -16.0142 -16.0053 -15.9183 -15.8766 -15.8542 -15.8501 -15.8223 -15.7976
   -15.7077 -15.6996  -0.8645   1.2790   4.7892   6.2582  11.3811  13.1975
    13.6730  15.3328

          k =-0.2500-1.0000 0.0000 (  3908 PWs)   bands (ev):

   -16.0075 -16.0075 -15.9094 -15.9094 -15.8441 -15.8441 -15.8063 -15.8063
   -15.7047 -15.7047   0.1589   0.1589   5.4915   5.4915  10.7453  10.7453
    16.1264  16.1264

          k =-0.5000-1.0000 0.0000 (  3884 PWs)   bands (ev):

   -16.0127 -16.0127 -15.8895 -15.8895 -15.8488 -15.8488 -15.8210 -15.8210
   -15.7001 -15.7001   0.2011   0.2011   5.1554   5.1554  12.9199  12.9199
    13.4879  13.4879

     the Fermi energy is     8.7639 ev

!    total energy              =    -357.28488226 Ry
     estimated scf accuracy    <       0.00000100 Ry
     smearing contrib. (-TS)   =      -0.00007902 Ry
     internal energy E=F+TS    =    -357.28480324 Ry

     The total energy is F=E-TS. E is the sum of the following terms:
     one-electron contribution =    -188.87718428 Ry
     hartree contribution      =     112.85368678 Ry
     xc contribution           =     -87.26412870 Ry
     ewald contribution        =    -193.99717704 Ry

     convergence has been achieved in   5 iterations

     Forces acting on atoms (cartesian axes, Ry/au):

     atom    1 type  1   force =     0.00000000    0.00000000    0.00000000
     atom    2 type  1   force =    -0.00000000   -0.00000000   -0.00000000
     The non-local contrib.  to forces
     atom    1 type  1   force =     0.00000000   -0.00000000    0.00000000
     atom    2 type  1   force =    -0.00000000    0.00000000   -0.00000000
     The ionic contribution  to forces
     atom    1 type  1   force =    -0.00000000   -0.00000000   -0.00000000
     atom    2 type  1   force =     0.00000000    0.00000000    0.00000000
     The local contribution  to forces
     atom    1 type  1   force =     0.00000000    0.00000000   -0.00000000
     atom    2 type  1   force =    -0.00000000   -0.00000000    0.00000000
     The core correction contribution to forces
     atom    1 type  1   force =     0.00000000    0.00000000   -0.00000000
     atom    2 type  1   force =     0.00000000   -0.00000000    0.00000000
     The Hubbard contrib.    to forces
     atom    1 type  1   force =     0.00000000    0.00000000    0.00000000
     atom    2 type  1   force =     0.00000000    0.00000000    0.00000000
     The SCF correction term to forces
     atom    1 type  1   force =    -0.00000000    0.00000000   -0.00000000
     atom    2 type  1   force =    -0.00000000    0.00000000    0.00000000

     Total force =     0.000000     Total SCF correction =     0.000000


     Computing stress (Cartesian axis) and pressure

          total   stress  (Ry/bohr**3)                   (kbar)     P=       -2.62
  -0.00001779   0.00000000  -0.00000000           -2.62        0.00       -0.00
   0.00000000  -0.00001779  -0.00000000            0.00       -2.62       -0.00
  -0.00000000   0.00000000  -0.00001779           -0.00        0.00       -2.62


     Writing all to output data dir ./Ge_out/Ge_scf.save/

     init_run     :      1.62s CPU      1.71s WALL (       1 calls)
     electrons    :     21.05s CPU     22.26s WALL (       1 calls)
     forces       :      0.23s CPU      0.24s WALL (       1 calls)
     stress       :      2.10s CPU      2.14s WALL (       1 calls)

     Called by init_run:
     wfcinit      :      1.17s CPU      1.23s WALL (       1 calls)
     potinit      :      0.05s CPU      0.06s WALL (       1 calls)
     hinit0       :      0.32s CPU      0.33s WALL (       1 calls)

     Called by electrons:
     c_bands      :     17.70s CPU     18.69s WALL (       6 calls)
     sum_band     :      3.17s CPU      3.34s WALL (       6 calls)
     v_of_rho     :      0.19s CPU      0.21s WALL (       6 calls)
     mix_rho      :      0.02s CPU      0.02s WALL (       6 calls)

     Called by c_bands:
     init_us_2    :      0.31s CPU      0.35s WALL (     435 calls)
     init_us_2:cp :      0.31s CPU      0.34s WALL (     435 calls)
     cegterg      :     16.82s CPU     17.69s WALL (     174 calls)

     Called by *egterg:
     cdiaghg      :      0.52s CPU      0.53s WALL (     575 calls)
     h_psi        :     15.72s CPU     16.59s WALL (     633 calls)
     g_psi        :      0.08s CPU      0.08s WALL (     430 calls)

     Called by h_psi:
     h_psi:calbec :      0.46s CPU      0.50s WALL (     633 calls)
     vloc_psi     :     14.78s CPU     15.59s WALL (     633 calls)
     add_vuspsi   :      0.43s CPU      0.44s WALL (     633 calls)

     General routines
     calbec       :      0.58s CPU      0.63s WALL (     778 calls)
     fft          :      0.36s CPU      0.38s WALL (      85 calls)
     ffts         :      0.01s CPU      0.01s WALL (       6 calls)
     fftw         :     15.70s CPU     16.55s WALL (   19534 calls)

     Parallel routines

     PWSCF        :     25.15s CPU     26.98s WALL


   This run was terminated on:  16:22: 9  26Apr2025            

=------------------------------------------------------------------------------=
   JOB DONE.
=------------------------------------------------------------------------------=
