
     Program PWSCF v.7.2 starts on 26Apr2025 at 16:19:25 

     This program is part of the open-source Quantum ESPRESSO suite
     for quantum simulation of materials; please cite
         "P. Giannozzi et al., J. Phys.:Condens. Matter 21 395502 (2009);
         "P. Giannozzi et al., J. Phys.:Condens. Matter 29 465901 (2017);
         "P. Giannozzi et al., J. Chem. Phys. 152 154105 (2020);
          URL http://www.quantum-espresso.org", 
     in publications or presentations arising from this work. More details at
     http://www.quantum-espresso.org/quote

     Parallel version (MPI), running on     4 processors

     MPI processes distributed on     1 nodes
     200845 MiB available memory on the printing compute node when the environment starts

     Waiting for input...
     Reading input from standard input
Warning: card &CELL ignored
Warning: card / ignored

     Current dimensions of program PWSCF are:
     Max number of different atomic species (ntypx) = 10
     Max number of k-points (npk) =  40000
     Max angular momentum in pseudopotentials (lmaxx) =  4

     R & G space division:  proc/nbgrp/npool/nimage =       4
     Subspace diagonalization in iterative solution of the eigenvalue problem:
     a serial algorithm will be used


     Parallelization info
     --------------------
     sticks:   dense  smooth     PW     G-vecs:    dense   smooth      PW
     Min         297     297     87                 6804     6804    1070
     Max         298     298     88                 6807     6807    1073
     Sum        1189    1189    349                27221    27221    4285

     Using Slab Decomposition



     bravais-lattice index     =            2
     lattice parameter (alat)  =      10.3935  a.u.
     unit-cell volume          =     280.6885 (a.u.)^3
     number of atoms/cell      =            2
     number of atomic types    =            1
     number of electrons       =        28.00
     number of Kohn-Sham states=           18
     kinetic-energy cutoff     =      80.0000  Ry
     charge density cutoff     =     320.0000  Ry
     scf convergence threshold =      1.0E-06
     mixing beta               =       0.4000
     number of iterations used =            8  plain     mixing
     Exchange-correlation= PBE
                           (   1   4   3   4   0   0   0)

     celldm(1)=  10.393494  celldm(2)=   0.000000  celldm(3)=   0.000000
     celldm(4)=   0.000000  celldm(5)=   0.000000  celldm(6)=   0.000000

     crystal axes: (cart. coord. in units of alat)
               a(1) = (  -0.500000   0.000000   0.500000 )  
               a(2) = (   0.000000   0.500000   0.500000 )  
               a(3) = (  -0.500000   0.500000   0.000000 )  

     reciprocal axes: (cart. coord. in units 2 pi/alat)
               b(1) = ( -1.000000 -1.000000  1.000000 )  
               b(2) = (  1.000000  1.000000  1.000000 )  
               b(3) = ( -1.000000  1.000000 -1.000000 )  


     PseudoPot. # 1 for Ge read from file:
     ./Ge.upf
     MD5 check sum: 087fa14d6c89b52166990835c3b338da
     Pseudo is Norm-conserving + core correction, Zval = 14.0
     Generated using ONCVPSP code by D. R. Hamann
     Using radial grid of 1560 points,  6 beta functions with: 
                l(1) =   0
                l(2) =   0
                l(3) =   1
                l(4) =   1
                l(5) =   2
                l(6) =   2

     atomic species   valence    mass     pseudopotential
        Ge            14.00    72.63000     Ge( 1.00)

     48 Sym. Ops., with inversion, found (24 have fractional translation)



   Cartesian axes

     site n.     atom                  positions (alat units)
         1           Ge  tau(   1) = (   0.0000000   0.0000000   0.0000000  )
         2           Ge  tau(   2) = (   0.2500000   0.2500000   0.2500000  )

     number of k points=    29  Gaussian smearing, width (Ry)=  0.0100
                       cart. coord. in units 2pi/alat
        k(    1) = (   0.0000000   0.0000000   0.0000000), wk =   0.0039062
        k(    2) = (  -0.1250000   0.1250000  -0.1250000), wk =   0.0312500
        k(    3) = (  -0.2500000   0.2500000  -0.2500000), wk =   0.0312500
        k(    4) = (  -0.3750000   0.3750000  -0.3750000), wk =   0.0312500
        k(    5) = (   0.5000000  -0.5000000   0.5000000), wk =   0.0156250
        k(    6) = (   0.0000000   0.2500000   0.0000000), wk =   0.0234375
        k(    7) = (  -0.1250000   0.3750000  -0.1250000), wk =   0.0937500
        k(    8) = (  -0.2500000   0.5000000  -0.2500000), wk =   0.0937500
        k(    9) = (   0.6250000  -0.3750000   0.6250000), wk =   0.0937500
        k(   10) = (   0.5000000  -0.2500000   0.5000000), wk =   0.0937500
        k(   11) = (   0.3750000  -0.1250000   0.3750000), wk =   0.0937500
        k(   12) = (   0.2500000   0.0000000   0.2500000), wk =   0.0468750
        k(   13) = (   0.0000000   0.5000000   0.0000000), wk =   0.0234375
        k(   14) = (  -0.1250000   0.6250000  -0.1250000), wk =   0.0937500
        k(   15) = (   0.7500000  -0.2500000   0.7500000), wk =   0.0937500
        k(   16) = (   0.6250000  -0.1250000   0.6250000), wk =   0.0937500
        k(   17) = (   0.5000000   0.0000000   0.5000000), wk =   0.0468750
        k(   18) = (   0.0000000   0.7500000   0.0000000), wk =   0.0234375
        k(   19) = (   0.8750000  -0.1250000   0.8750000), wk =   0.0937500
        k(   20) = (   0.7500000   0.0000000   0.7500000), wk =   0.0468750
        k(   21) = (   0.0000000  -1.0000000   0.0000000), wk =   0.0117188
        k(   22) = (  -0.2500000   0.5000000   0.0000000), wk =   0.0937500
        k(   23) = (   0.6250000  -0.3750000   0.8750000), wk =   0.1875000
        k(   24) = (   0.5000000  -0.2500000   0.7500000), wk =   0.0937500
        k(   25) = (   0.7500000  -0.2500000   1.0000000), wk =   0.0937500
        k(   26) = (   0.6250000  -0.1250000   0.8750000), wk =   0.1875000
        k(   27) = (   0.5000000   0.0000000   0.7500000), wk =   0.0937500
        k(   28) = (  -0.2500000  -1.0000000   0.0000000), wk =   0.0468750
        k(   29) = (  -0.5000000  -1.0000000   0.0000000), wk =   0.0234375

     Dense  grid:    27221 G-vectors     FFT dimensions: (  48,  48,  48)

     Estimated max dynamical RAM per process >      14.62 MB

     Estimated total dynamical RAM >      58.47 MB

     Initial potential from superposition of free atoms

     starting charge      27.9984, renormalised to      28.0000
     Starting wfcs are   18 randomized atomic wfcs

     total cpu time spent up to now is        1.9 secs

     Self-consistent Calculation

     iteration #  1     ecut=    80.00 Ry     beta= 0.40
     Davidson diagonalization with overlap
     ethr =  1.00E-02,  avg # of iterations =  4.0

     Threshold (ethr) on eigenvalues was too large:
     Diagonalizing with lowered threshold

     Davidson diagonalization with overlap
     ethr =  1.30E-04,  avg # of iterations =  3.8

     total cpu time spent up to now is       10.0 secs

     total energy              =    -357.27140610 Ry
     estimated scf accuracy    <       0.03880217 Ry

     iteration #  2     ecut=    80.00 Ry     beta= 0.40
     Davidson diagonalization with overlap
     ethr =  1.39E-04,  avg # of iterations =  1.0

     total cpu time spent up to now is       13.0 secs

     total energy              =    -357.26959768 Ry
     estimated scf accuracy    <       0.01166971 Ry

     iteration #  3     ecut=    80.00 Ry     beta= 0.40
     Davidson diagonalization with overlap
     ethr =  4.17E-05,  avg # of iterations =  1.6

     total cpu time spent up to now is       16.1 secs

     total energy              =    -357.27027677 Ry
     estimated scf accuracy    <       0.00013490 Ry

     iteration #  4     ecut=    80.00 Ry     beta= 0.40
     Davidson diagonalization with overlap
     ethr =  4.82E-07,  avg # of iterations =  3.7

     total cpu time spent up to now is       20.4 secs

     total energy              =    -357.27030315 Ry
     estimated scf accuracy    <       0.00000864 Ry

     iteration #  5     ecut=    80.00 Ry     beta= 0.40
     Davidson diagonalization with overlap
     ethr =  3.09E-08,  avg # of iterations =  1.9

     total cpu time spent up to now is       23.5 secs

     End of self-consistent calculation

          k = 0.0000 0.0000 0.0000 (  3383 PWs)   bands (ev):

   -14.1928 -14.1928 -14.1928 -14.1501 -14.1501 -13.8898 -13.8898 -13.8898
   -13.8676 -13.8676  -2.6275  10.8249  10.8249  10.8249  11.6595  13.4063
    13.4063  13.4063

          k =-0.1250 0.1250-0.1250 (  3404 PWs)   bands (ev):

   -14.2031 -14.2031 -14.1898 -14.1355 -14.1355 -13.9027 -13.9027 -13.8934
   -13.8569 -13.8569  -2.4213   8.5469  10.4488  10.4488  12.2681  13.9025
    13.9025  14.6217

          k =-0.2500 0.2500-0.2500 (  3398 PWs)   bands (ev):

   -14.2154 -14.2154 -14.1825 -14.1140 -14.1140 -13.9186 -13.9186 -13.9023
   -13.8451 -13.8451  -1.8206   5.9681   9.8487   9.8487  11.7953  14.5610
    14.5610  16.9782

          k =-0.3750 0.3750-0.3750 (  3398 PWs)   bands (ev):

   -14.2212 -14.2212 -14.1750 -14.1015 -14.1015 -13.9265 -13.9265 -13.9114
   -13.8390 -13.8390  -0.9294   3.8304   9.4291   9.4291  11.4120  14.6584
    14.6585  18.1890

          k = 0.5000-0.5000 0.5000 (  3426 PWs)   bands (ev):

   -14.2225 -14.2225 -14.1719 -14.0982 -14.0982 -13.9280 -13.9280 -13.9153
   -13.8374 -13.8374  -0.3190   2.7969   9.2837   9.2837  11.2786  14.5965
    14.5965  17.9937

          k = 0.0000 0.2500 0.0000 (  3407 PWs)   bands (ev):

   -14.2033 -14.1996 -14.1996 -14.1388 -14.1199 -13.9314 -13.8788 -13.8788
   -13.8778 -13.8505  -2.3516   8.6235   9.8420   9.8420  12.7086  13.6463
    14.7342  14.7342

          k =-0.1250 0.3750-0.1250 (  3405 PWs)   bands (ev):

   -14.2195 -14.2096 -14.1898 -14.1211 -14.0949 -13.9569 -13.8996 -13.8815
   -13.8589 -13.8400  -1.8781   6.6242   9.1888   9.2267  12.8206  13.7910
    15.6190  15.8686

          k =-0.2500 0.5000-0.2500 (  3396 PWs)   bands (ev):

   -14.2326 -14.2188 -14.1718 -14.1023 -14.0799 -13.9671 -13.9188 -13.9005
   -13.8443 -13.8272  -1.0597   4.4637   8.4734   8.8872  12.6557  14.2832
    15.7380  16.5949

          k = 0.6250-0.3750 0.6250 (  3379 PWs)   bands (ev):

   -14.2378 -14.2251 -14.1564 -14.0880 -14.0833 -13.9564 -13.9356 -13.9196
   -13.8341 -13.8219  -0.2213   2.9756   7.9768   8.8902  12.4528  14.4235
    15.3973  18.2868

          k = 0.5000-0.2500 0.5000 (  3393 PWs)   bands (ev):

   -14.2345 -14.2287 -14.1539 -14.0970 -14.0806 -13.9478 -13.9327 -13.9280
   -13.8289 -13.8270  -0.4545   3.3455   7.8061   9.2236  12.5000  14.6515
    15.0852  18.5528

          k = 0.3750-0.1250 0.3750 (  3405 PWs)   bands (ev):

   -14.2270 -14.2234 -14.1677 -14.1111 -14.0884 -13.9461 -13.9285 -13.9003
   -13.8431 -13.8305  -1.3667   5.1495   8.0364   9.8080  12.7703  14.6989
    14.9169  16.8565

          k = 0.2500 0.0000 0.2500 (  3383 PWs)   bands (ev):

   -14.2174 -14.2076 -14.1854 -14.1264 -14.1116 -13.9278 -13.9164 -13.8745
   -13.8672 -13.8401  -2.0817   7.2148   8.8828  10.4093  12.9386  14.0175
    14.2524  15.9488

          k = 0.0000 0.5000 0.0000 (  3399 PWs)   bands (ev):

   -14.2147 -14.2147 -14.2030 -14.1068 -14.0628 -13.9976 -13.9071 -13.8535
   -13.8535 -13.8534  -1.5322   6.1267   8.5685   8.5685  11.7542  13.7504
    17.0025  17.0025

          k =-0.1250 0.6250-0.1250 (  3396 PWs)   bands (ev):

   -14.2333 -14.2228 -14.1791 -14.0848 -14.0380 -14.0229 -13.9296 -13.8835
   -13.8391 -13.8272  -0.8142   4.6344   7.6810   8.1884  12.0389  13.6302
    16.9308  17.6314

          k = 0.7500-0.2500 0.7500 (  3393 PWs)   bands (ev):

   -14.2490 -14.2298 -14.1485 -14.0634 -14.0399 -14.0168 -13.9544 -13.9168
   -13.8275 -13.8092   0.1048   3.1771   6.7396   8.1761  12.2124  15.3119
    16.5177  17.3053

          k = 0.6250-0.1250 0.6250 (  3393 PWs)   bands (ev):

   -14.2530 -14.2343 -14.1326 -14.0614 -14.0491 -13.9901 -13.9743 -13.9332
   -13.8213 -13.8056   0.2931   2.9336   6.2686   8.5305  12.4781  16.2051
    16.7244  17.9965

          k = 0.5000 0.0000 0.5000 (  3398 PWs)   bands (ev):

   -14.2428 -14.2341 -14.1395 -14.0949 -14.0594 -13.9704 -13.9486 -13.9283
   -13.8221 -13.8190  -0.5704   4.1127   6.5612   9.1668  12.9457  15.8129
    16.2438  16.4264

          k = 0.0000 0.7500 0.0000 (  3391 PWs)   bands (ev):

   -14.2283 -14.2283 -14.1792 -14.0687 -14.0597 -13.9976 -13.9516 -13.8833
   -13.8296 -13.8296  -0.1974   3.7459   7.7286   7.7286  11.2778  12.3304
    19.4025  19.4026

          k = 0.8750-0.1250 0.8750 (  3386 PWs)   bands (ev):

   -14.2426 -14.2327 -14.1468 -14.0880 -14.0339 -13.9785 -13.9767 -13.9178
   -13.8221 -13.8134   0.7105   2.6079   6.8862   7.6342  11.6177  12.7547
    19.2935  19.6430

          k = 0.7500 0.0000 0.7500 (  3362 PWs)   bands (ev):

   -14.2556 -14.2353 -14.1289 -14.0551 -14.0201 -14.0044 -13.9968 -13.9357
   -13.8190 -13.8010   1.1129   2.2247   6.0243   7.9230  11.9124  15.0691
    18.5894  18.6236

          k = 0.0000-1.0000 0.0000 (  3378 PWs)   bands (ev):

   -14.2335 -14.2335 -14.1325 -14.1325 -14.0051 -14.0051 -13.9344 -13.9344
   -13.8201 -13.8201   1.5947   1.5947   7.4401   7.4401  11.4491  11.4491
    21.0605  21.0606

          k =-0.2500 0.5000 0.0000 (  3409 PWs)   bands (ev):

   -14.2287 -14.2246 -14.1731 -14.1046 -14.0683 -13.9840 -13.9158 -13.8940
   -13.8417 -13.8302  -1.2843   5.3759   7.6679   9.0493  13.2229  14.0177
    15.5043  16.6791

          k = 0.6250-0.3750 0.8750 (  3396 PWs)   bands (ev):

   -14.2427 -14.2329 -14.1464 -14.0862 -14.0527 -13.9942 -13.9360 -13.9243
   -13.8259 -13.8168  -0.3961   3.7735   6.9467   8.5081  13.4957  14.3617
    15.8878  17.2744

          k = 0.5000-0.2500 0.7500 (  3390 PWs)   bands (ev):

   -14.2491 -14.2345 -14.1345 -14.0726 -14.0547 -13.9874 -13.9576 -13.9329
   -13.8227 -13.8094   0.2327   2.8434   6.7695   8.2646  13.4722  14.2197
    16.9420  18.1796

          k = 0.7500-0.2500 1.0000 (  3395 PWs)   bands (ev):

   -14.2389 -14.2385 -14.1508 -14.0616 -14.0492 -14.0111 -13.9541 -13.9125
   -13.8193 -13.8191  -0.0049   3.5144   6.9574   7.6214  12.7010  13.4310
    16.7176  19.2934

          k = 0.6250-0.1250 0.8750 (  3372 PWs)   bands (ev):

   -14.2533 -14.2414 -14.1189 -14.0505 -14.0387 -14.0070 -13.9821 -13.9426
   -13.8145 -13.8035   0.8576   2.5187   6.2518   7.4082  13.1632  15.2587
    16.1337  18.3480

          k = 0.5000 0.0000 0.7500 (  3389 PWs)   bands (ev):

   -14.2538 -14.2410 -14.1195 -14.0571 -14.0230 -14.0209 -13.9775 -13.9419
   -13.8151 -13.8040   0.5019   2.9056   6.0840   7.8088  13.6186  15.5538
    16.0194  18.0053

          k =-0.2500-1.0000 0.0000 (  3372 PWs)   bands (ev):

   -14.2437 -14.2437 -14.1080 -14.1080 -14.0076 -14.0076 -13.9549 -13.9549
   -13.8115 -13.8115   1.6559   1.6559   6.9095   6.9095  12.7520  12.7520
    18.9012  18.9012

          k =-0.5000-1.0000 0.0000 (  3380 PWs)   bands (ev):

   -14.2516 -14.2516 -14.0782 -14.0782 -14.0161 -14.0161 -13.9753 -13.9753
   -13.8044 -13.8044   1.7212   1.7212   6.4964   6.4964  15.4923  15.4923
    15.5873  15.5873

     the Fermi energy is    11.0299 ev

!    total energy              =    -357.27030299 Ry
     estimated scf accuracy    <       0.00000098 Ry
     smearing contrib. (-TS)   =      -0.00000740 Ry
     internal energy E=F+TS    =    -357.27029559 Ry

     The total energy is F=E-TS. E is the sum of the following terms:
     one-electron contribution =    -174.00792506 Ry
     hartree contribution      =     107.31618312 Ry
     xc contribution           =     -87.41060097 Ry
     ewald contribution        =    -203.16795268 Ry

     convergence has been achieved in   5 iterations

     Forces acting on atoms (cartesian axes, Ry/au):

     atom    1 type  1   force =     0.00000000    0.00000000   -0.00000000
     atom    2 type  1   force =    -0.00000000   -0.00000000    0.00000000
     The non-local contrib.  to forces
     atom    1 type  1   force =     0.00000000    0.00000000    0.00000000
     atom    2 type  1   force =    -0.00000000   -0.00000000   -0.00000000
     The ionic contribution  to forces
     atom    1 type  1   force =     0.00000000    0.00000000    0.00000000
     atom    2 type  1   force =    -0.00000000   -0.00000000   -0.00000000
     The local contribution  to forces
     atom    1 type  1   force =     0.00000000   -0.00000000   -0.00000000
     atom    2 type  1   force =    -0.00000000    0.00000000    0.00000000
     The core correction contribution to forces
     atom    1 type  1   force =     0.00000000    0.00000000    0.00000000
     atom    2 type  1   force =     0.00000000   -0.00000000   -0.00000000
     The Hubbard contrib.    to forces
     atom    1 type  1   force =     0.00000000    0.00000000    0.00000000
     atom    2 type  1   force =     0.00000000    0.00000000    0.00000000
     The SCF correction term to forces
     atom    1 type  1   force =     0.00000000   -0.00000000    0.00000000
     atom    2 type  1   force =    -0.00000000    0.00000000    0.00000000

     Total force =     0.000000     Total SCF correction =     0.000000


     Computing stress (Cartesian axis) and pressure

          total   stress  (Ry/bohr**3)                   (kbar)     P=      111.63
   0.00075886  -0.00000000  -0.00000000          111.63       -0.00       -0.00
  -0.00000000   0.00075886   0.00000000           -0.00      111.63        0.00
  -0.00000000   0.00000000   0.00075886           -0.00        0.00      111.63


     Writing all to output data dir ./Ge_out/Ge_scf.save/

     init_run     :      1.55s CPU      1.65s WALL (       1 calls)
     electrons    :     20.50s CPU     21.68s WALL (       1 calls)
     forces       :      0.20s CPU      0.22s WALL (       1 calls)
     stress       :      1.83s CPU      1.86s WALL (       1 calls)

     Called by init_run:
     wfcinit      :      1.12s CPU      1.19s WALL (       1 calls)
     potinit      :      0.05s CPU      0.06s WALL (       1 calls)
     hinit0       :      0.32s CPU      0.33s WALL (       1 calls)

     Called by electrons:
     c_bands      :     17.28s CPU     18.23s WALL (       6 calls)
     sum_band     :      3.05s CPU      3.22s WALL (       6 calls)
     v_of_rho     :      0.18s CPU      0.21s WALL (       6 calls)
     mix_rho      :      0.01s CPU      0.02s WALL (       6 calls)

     Called by c_bands:
     init_us_2    :      0.27s CPU      0.30s WALL (     435 calls)
     init_us_2:cp :      0.27s CPU      0.30s WALL (     435 calls)
     cegterg      :     16.51s CPU     17.32s WALL (     174 calls)

     Called by *egterg:
     cdiaghg      :      0.54s CPU      0.55s WALL (     610 calls)
     h_psi        :     15.55s CPU     16.37s WALL (     668 calls)
     g_psi        :      0.07s CPU      0.07s WALL (     465 calls)

     Called by h_psi:
     h_psi:calbec :      0.42s CPU      0.44s WALL (     668 calls)
     vloc_psi     :     14.69s CPU     15.46s WALL (     668 calls)
     add_vuspsi   :      0.39s CPU      0.41s WALL (     668 calls)

     General routines
     calbec       :      0.53s CPU      0.55s WALL (     813 calls)
     fft          :      0.35s CPU      0.37s WALL (      85 calls)
     ffts         :      0.01s CPU      0.01s WALL (       6 calls)
     fftw         :     15.58s CPU     16.40s WALL (   19588 calls)

     Parallel routines

     PWSCF        :     24.25s CPU     25.97s WALL


   This run was terminated on:  16:19:51  26Apr2025            

=------------------------------------------------------------------------------=
   JOB DONE.
=------------------------------------------------------------------------------=
