
     Program PWSCF v.7.2 starts on 26Apr2025 at 16:18:59 

     This program is part of the open-source Quantum ESPRESSO suite
     for quantum simulation of materials; please cite
         "P. Giannozzi et al., J. Phys.:Condens. Matter 21 395502 (2009);
         "P. Giannozzi et al., J. Phys.:Condens. Matter 29 465901 (2017);
         "P. Giannozzi et al., J. Chem. Phys. 152 154105 (2020);
          URL http://www.quantum-espresso.org", 
     in publications or presentations arising from this work. More details at
     http://www.quantum-espresso.org/quote

     Parallel version (MPI), running on     4 processors

     MPI processes distributed on     1 nodes
     200843 MiB available memory on the printing compute node when the environment starts

     Waiting for input...
     Reading input from standard input
Warning: card &CELL ignored
Warning: card / ignored

     Current dimensions of program PWSCF are:
     Max number of different atomic species (ntypx) = 10
     Max number of k-points (npk) =  40000
     Max angular momentum in pseudopotentials (lmaxx) =  4

     R & G space division:  proc/nbgrp/npool/nimage =       4
     Subspace diagonalization in iterative solution of the eigenvalue problem:
     a serial algorithm will be used


     Parallelization info
     --------------------
     sticks:   dense  smooth     PW     G-vecs:    dense   smooth      PW
     Min         289     289     87                 6454     6454    1027
     Max         290     290     88                 6456     6456    1028
     Sum        1159    1159    349                25821    25821    4111

     Using Slab Decomposition



     bravais-lattice index     =            2
     lattice parameter (alat)  =      10.2045  a.u.
     unit-cell volume          =     265.6549 (a.u.)^3
     number of atoms/cell      =            2
     number of atomic types    =            1
     number of electrons       =        28.00
     number of Kohn-Sham states=           18
     kinetic-energy cutoff     =      80.0000  Ry
     charge density cutoff     =     320.0000  Ry
     scf convergence threshold =      1.0E-06
     mixing beta               =       0.4000
     number of iterations used =            8  plain     mixing
     Exchange-correlation= PBE
                           (   1   4   3   4   0   0   0)

     celldm(1)=  10.204521  celldm(2)=   0.000000  celldm(3)=   0.000000
     celldm(4)=   0.000000  celldm(5)=   0.000000  celldm(6)=   0.000000

     crystal axes: (cart. coord. in units of alat)
               a(1) = (  -0.500000   0.000000   0.500000 )  
               a(2) = (   0.000000   0.500000   0.500000 )  
               a(3) = (  -0.500000   0.500000   0.000000 )  

     reciprocal axes: (cart. coord. in units 2 pi/alat)
               b(1) = ( -1.000000 -1.000000  1.000000 )  
               b(2) = (  1.000000  1.000000  1.000000 )  
               b(3) = ( -1.000000  1.000000 -1.000000 )  


     PseudoPot. # 1 for Ge read from file:
     ./Ge.upf
     MD5 check sum: 087fa14d6c89b52166990835c3b338da
     Pseudo is Norm-conserving + core correction, Zval = 14.0
     Generated using ONCVPSP code by D. R. Hamann
     Using radial grid of 1560 points,  6 beta functions with: 
                l(1) =   0
                l(2) =   0
                l(3) =   1
                l(4) =   1
                l(5) =   2
                l(6) =   2

     atomic species   valence    mass     pseudopotential
        Ge            14.00    72.63000     Ge( 1.00)

     48 Sym. Ops., with inversion, found (24 have fractional translation)



   Cartesian axes

     site n.     atom                  positions (alat units)
         1           Ge  tau(   1) = (   0.0000000   0.0000000   0.0000000  )
         2           Ge  tau(   2) = (   0.2500000   0.2500000   0.2500000  )

     number of k points=    29  Gaussian smearing, width (Ry)=  0.0100
                       cart. coord. in units 2pi/alat
        k(    1) = (   0.0000000   0.0000000   0.0000000), wk =   0.0039062
        k(    2) = (  -0.1250000   0.1250000  -0.1250000), wk =   0.0312500
        k(    3) = (  -0.2500000   0.2500000  -0.2500000), wk =   0.0312500
        k(    4) = (  -0.3750000   0.3750000  -0.3750000), wk =   0.0312500
        k(    5) = (   0.5000000  -0.5000000   0.5000000), wk =   0.0156250
        k(    6) = (   0.0000000   0.2500000   0.0000000), wk =   0.0234375
        k(    7) = (  -0.1250000   0.3750000  -0.1250000), wk =   0.0937500
        k(    8) = (  -0.2500000   0.5000000  -0.2500000), wk =   0.0937500
        k(    9) = (   0.6250000  -0.3750000   0.6250000), wk =   0.0937500
        k(   10) = (   0.5000000  -0.2500000   0.5000000), wk =   0.0937500
        k(   11) = (   0.3750000  -0.1250000   0.3750000), wk =   0.0937500
        k(   12) = (   0.2500000   0.0000000   0.2500000), wk =   0.0468750
        k(   13) = (   0.0000000   0.5000000   0.0000000), wk =   0.0234375
        k(   14) = (  -0.1250000   0.6250000  -0.1250000), wk =   0.0937500
        k(   15) = (   0.7500000  -0.2500000   0.7500000), wk =   0.0937500
        k(   16) = (   0.6250000  -0.1250000   0.6250000), wk =   0.0937500
        k(   17) = (   0.5000000   0.0000000   0.5000000), wk =   0.0468750
        k(   18) = (   0.0000000   0.7500000   0.0000000), wk =   0.0234375
        k(   19) = (   0.8750000  -0.1250000   0.8750000), wk =   0.0937500
        k(   20) = (   0.7500000   0.0000000   0.7500000), wk =   0.0468750
        k(   21) = (   0.0000000  -1.0000000   0.0000000), wk =   0.0117188
        k(   22) = (  -0.2500000   0.5000000   0.0000000), wk =   0.0937500
        k(   23) = (   0.6250000  -0.3750000   0.8750000), wk =   0.1875000
        k(   24) = (   0.5000000  -0.2500000   0.7500000), wk =   0.0937500
        k(   25) = (   0.7500000  -0.2500000   1.0000000), wk =   0.0937500
        k(   26) = (   0.6250000  -0.1250000   0.8750000), wk =   0.1875000
        k(   27) = (   0.5000000   0.0000000   0.7500000), wk =   0.0937500
        k(   28) = (  -0.2500000  -1.0000000   0.0000000), wk =   0.0468750
        k(   29) = (  -0.5000000  -1.0000000   0.0000000), wk =   0.0234375

     Dense  grid:    25821 G-vectors     FFT dimensions: (  48,  48,  48)

     Estimated max dynamical RAM per process >      14.02 MB

     Estimated total dynamical RAM >      56.07 MB

     Initial potential from superposition of free atoms

     starting charge      27.9984, renormalised to      28.0000
     Starting wfcs are   18 randomized atomic wfcs

     total cpu time spent up to now is        1.8 secs

     Self-consistent Calculation

     iteration #  1     ecut=    80.00 Ry     beta= 0.40
     Davidson diagonalization with overlap
     ethr =  1.00E-02,  avg # of iterations =  4.1

     Threshold (ethr) on eigenvalues was too large:
     Diagonalizing with lowered threshold

     Davidson diagonalization with overlap
     ethr =  1.41E-04,  avg # of iterations =  3.7

     total cpu time spent up to now is        9.9 secs

     total energy              =    -357.25640609 Ry
     estimated scf accuracy    <       0.04193958 Ry

     iteration #  2     ecut=    80.00 Ry     beta= 0.40
     Davidson diagonalization with overlap
     ethr =  1.50E-04,  avg # of iterations =  1.0

     total cpu time spent up to now is       12.9 secs

     total energy              =    -357.25432487 Ry
     estimated scf accuracy    <       0.01244399 Ry

     iteration #  3     ecut=    80.00 Ry     beta= 0.40
     Davidson diagonalization with overlap
     ethr =  4.44E-05,  avg # of iterations =  1.7

     total cpu time spent up to now is       15.9 secs

     total energy              =    -357.25508857 Ry
     estimated scf accuracy    <       0.00014304 Ry

     iteration #  4     ecut=    80.00 Ry     beta= 0.40
     Davidson diagonalization with overlap
     ethr =  5.11E-07,  avg # of iterations =  3.9

     total cpu time spent up to now is       20.1 secs

     total energy              =    -357.25511586 Ry
     estimated scf accuracy    <       0.00000861 Ry

     iteration #  5     ecut=    80.00 Ry     beta= 0.40
     Davidson diagonalization with overlap
     ethr =  3.07E-08,  avg # of iterations =  2.0

     total cpu time spent up to now is       23.2 secs

     End of self-consistent calculation

          k = 0.0000 0.0000 0.0000 (  3215 PWs)   bands (ev):

   -13.4376 -13.4376 -13.4376 -13.3889 -13.3889 -13.0915 -13.0915 -13.0915
   -13.0609 -13.0609  -2.2185  11.7112  11.7112  11.7112  13.0907  14.3028
    14.3028  14.3028

          k =-0.1250 0.1250-0.1250 (  3209 PWs)   bands (ev):

   -13.4495 -13.4495 -13.4342 -13.3719 -13.3719 -13.1048 -13.1048 -13.0957
   -13.0501 -13.0501  -2.0014   9.4453  11.3052  11.3052  13.4175  14.8331
    14.8331  15.7560

          k =-0.2500 0.2500-0.2500 (  3215 PWs)   bands (ev):

   -13.4635 -13.4635 -13.4260 -13.3472 -13.3472 -13.1219 -13.1219 -13.1060
   -13.0376 -13.0376  -1.3673   6.7322  10.6680  10.6680  12.8831  15.5084
    15.5084  18.2170

          k =-0.3750 0.3750-0.3750 (  3212 PWs)   bands (ev):

   -13.4698 -13.4698 -13.4176 -13.3331 -13.3331 -13.1300 -13.1300 -13.1165
   -13.0312 -13.0312  -0.4189   4.4723  10.2261  10.2261  12.4895  15.5698
    15.5698  19.1027

          k = 0.5000-0.5000 0.5000 (  3214 PWs)   bands (ev):

   -13.4711 -13.4711 -13.4141 -13.3296 -13.3296 -13.1312 -13.1312 -13.1210
   -13.0297 -13.0297   0.2439   3.3646  10.0735  10.0735  12.3544  15.4897
    15.4897  18.8770

          k = 0.0000 0.2500 0.0000 (  3203 PWs)   bands (ev):

   -13.4502 -13.4452 -13.4452 -13.3757 -13.3538 -13.1383 -13.0787 -13.0787
   -13.0727 -13.0425  -1.9282   9.6064  10.6500  10.6500  13.5717  14.9405
    15.7248  15.7248

          k =-0.1250 0.3750-0.1250 (  3224 PWs)   bands (ev):

   -13.4684 -13.4565 -13.4345 -13.3553 -13.3249 -13.1676 -13.0989 -13.0809
   -13.0546 -13.0313  -1.4289   7.4661   9.9942   9.9980  13.7311  14.9237
    16.6462  16.8467

          k =-0.2500 0.5000-0.2500 (  3223 PWs)   bands (ev):

   -13.4832 -13.4669 -13.4142 -13.3338 -13.3079 -13.1790 -13.1205 -13.1022
   -13.0379 -13.0173  -0.5616   5.1683   9.2518   9.6421  13.6567  15.2786
    16.7252  17.5679

          k = 0.6250-0.3750 0.6250 (  3211 PWs)   bands (ev):

   -13.4889 -13.4741 -13.3966 -13.3175 -13.3121 -13.1661 -13.1399 -13.1239
   -13.0259 -13.0115   0.3414   3.5765   8.7269   9.6497  13.4800  15.3480
    16.3403  19.3318

          k = 0.5000-0.2500 0.5000 (  3195 PWs)   bands (ev):

   -13.4850 -13.4785 -13.3935 -13.3280 -13.3088 -13.1548 -13.1407 -13.1314
   -13.0194 -13.0179   0.0879   3.9747   8.5364  10.0069  13.5553  15.5637
    16.0166  19.6356

          k = 0.3750-0.1250 0.3750 (  3212 PWs)   bands (ev):

   -13.4769 -13.4723 -13.4091 -13.3441 -13.3174 -13.1537 -13.1351 -13.1002
   -13.0367 -13.0207  -0.8875   5.8980   8.7581  10.6303  13.8587  15.6422
    15.8766  17.9483

          k = 0.2500 0.0000 0.2500 (  3221 PWs)   bands (ev):

   -13.4661 -13.4543 -13.4293 -13.3615 -13.3442 -13.1333 -13.1212 -13.0701
   -13.0651 -13.0312  -1.6435   8.0873   9.6259  11.2721  14.0822  14.9417
    15.2328  17.0612

          k = 0.0000 0.5000 0.0000 (  3207 PWs)   bands (ev):

   -13.4622 -13.4622 -13.4507 -13.3386 -13.2880 -13.2150 -13.1067 -13.0491
   -13.0491 -13.0460  -1.0653   7.0082   9.2989   9.2989  12.5737  14.7126
    18.1145  18.1145

          k =-0.1250 0.6250-0.1250 (  3213 PWs)   bands (ev):

   -13.4839 -13.4713 -13.4231 -13.3131 -13.2597 -13.2439 -13.1328 -13.0817
   -13.0321 -13.0177  -0.3068   5.4242   8.3645   8.8981  12.8743  14.5539
    18.0614  18.7410

          k = 0.7500-0.2500 0.7500 (  3208 PWs)   bands (ev):

   -13.5019 -13.4793 -13.3881 -13.2885 -13.2624 -13.2360 -13.1617 -13.1200
   -13.0183 -12.9969   0.6740   3.8636   7.3752   8.8875  13.0622  16.3396
    17.6040  18.3587

          k = 0.6250-0.1250 0.6250 (  3201 PWs)   bands (ev):

   -13.5063 -13.4848 -13.3696 -13.2869 -13.2719 -13.2056 -13.1853 -13.1385
   -13.0107 -12.9929   0.8814   3.5972   6.8708   9.2657  13.3650  17.3232
    17.7542  19.1119

          k = 0.5000 0.0000 0.5000 (  3190 PWs)   bands (ev):

   -13.4946 -13.4849 -13.3770 -13.3256 -13.2838 -13.1815 -13.1590 -13.1317
   -13.0113 -13.0087  -0.0433   4.8550   7.1667   9.9443  13.9131  16.8207
    17.3246  17.5161

          k = 0.0000 0.7500 0.0000 (  3206 PWs)   bands (ev):

   -13.4774 -13.4774 -13.4241 -13.2972 -13.2838 -13.2128 -13.1583 -13.0807
   -13.0210 -13.0210   0.3418   4.5039   8.4114   8.4114  12.0708  13.1524
    20.6376  20.6376

          k = 0.8750-0.1250 0.8750 (  3222 PWs)   bands (ev):

   -13.4941 -13.4824 -13.3868 -13.3192 -13.2539 -13.1895 -13.1888 -13.1208
   -13.0121 -13.0019   1.3037   3.3045   7.5066   8.3123  12.4199  13.6147
    20.5630  20.8548

          k = 0.7500 0.0000 0.7500 (  3200 PWs)   bands (ev):

   -13.5093 -13.4855 -13.3661 -13.2807 -13.2379 -13.2210 -13.2112 -13.1415
   -13.0082 -12.9874   1.7473   2.8888   6.5813   8.6195  12.7360  16.0447
    19.7791  19.8469

          k = 0.0000-1.0000 0.0000 (  3250 PWs)   bands (ev):

   -13.4832 -13.4832 -13.3707 -13.3707 -13.2204 -13.2204 -13.1399 -13.1399
   -13.0098 -13.0098   2.2332   2.2332   8.1067   8.1067  12.2382  12.2382
    22.4299  22.4299

          k =-0.2500 0.5000 0.0000 (  3207 PWs)   bands (ev):

   -13.4788 -13.4736 -13.4155 -13.3363 -13.2942 -13.1989 -13.1175 -13.0941
   -13.0352 -13.0204  -0.8021   6.1871   8.3408   9.8233  14.1224  15.1504
    16.3925  17.7698

          k = 0.6250-0.3750 0.8750 (  3206 PWs)   bands (ev):

   -13.4946 -13.4833 -13.3852 -13.3153 -13.2763 -13.2102 -13.1405 -13.1293
   -13.0162 -13.0057   0.1419   4.4817   7.6004   9.2378  14.4922  15.3239
    16.8776  18.3544

          k = 0.5000-0.2500 0.7500 (  3222 PWs)   bands (ev):

   -13.5019 -13.4850 -13.3716 -13.2999 -13.2787 -13.2023 -13.1659 -13.1383
   -13.0124 -12.9972   0.8215   3.4768   7.4280   8.9739  14.5180  15.0823
    18.0479  19.3231

          k = 0.7500-0.2500 1.0000 (  3205 PWs)   bands (ev):

   -13.4898 -13.4897 -13.3907 -13.2863 -13.2743 -13.2284 -13.1613 -13.1151
   -13.0089 -13.0083   0.5497   4.2582   7.5870   8.2867  13.5706  14.3321
    17.8071  20.5370

          k = 0.6250-0.1250 0.8750 (  3209 PWs)   bands (ev):

   -13.5067 -13.4929 -13.3540 -13.2751 -13.2603 -13.2236 -13.1942 -13.1494
   -13.0030 -12.9903   1.4727   3.2027   6.8318   8.0591  14.0592  16.2535
    17.1738  19.5172

          k = 0.5000 0.0000 0.7500 (  3214 PWs)   bands (ev):

   -13.5072 -13.4925 -13.3545 -13.2818 -13.2417 -13.2410 -13.1896 -13.1484
   -13.0035 -12.9909   1.0966   3.6071   6.6519   8.4880  14.5628  16.5620
    17.0494  19.1479

          k =-0.2500-1.0000 0.0000 (  3200 PWs)   bands (ev):

   -13.4954 -13.4954 -13.3419 -13.3419 -13.2235 -13.2235 -13.1637 -13.1637
   -12.9996 -12.9996   2.3049   2.3049   7.5304   7.5304  13.6158  13.6159
    20.0943  20.0943

          k =-0.5000-1.0000 0.0000 (  3188 PWs)   bands (ev):

   -13.5047 -13.5047 -13.3071 -13.3071 -13.2341 -13.2341 -13.1868 -13.1868
   -12.9913 -12.9913   2.3821   2.3821   7.0824   7.0824  16.4971  16.4971
    16.5963  16.5963

     the Fermi energy is    11.8761 ev

!    total energy              =    -357.25511584 Ry
     estimated scf accuracy    <       0.00000083 Ry
     smearing contrib. (-TS)   =      -0.00001621 Ry
     internal energy E=F+TS    =    -357.25509963 Ry

     The total energy is F=E-TS. E is the sum of the following terms:
     one-electron contribution =    -167.95377600 Ry
     hartree contribution      =     105.10342820 Ry
     xc contribution           =     -87.47442966 Ry
     ewald contribution        =    -206.93032218 Ry

     convergence has been achieved in   5 iterations

     Forces acting on atoms (cartesian axes, Ry/au):

     atom    1 type  1   force =     0.00000000    0.00000000    0.00000000
     atom    2 type  1   force =     0.00000000    0.00000000    0.00000000
     The non-local contrib.  to forces
     atom    1 type  1   force =    -0.00000000   -0.00000000    0.00000000
     atom    2 type  1   force =     0.00000000    0.00000000   -0.00000000
     The ionic contribution  to forces
     atom    1 type  1   force =     0.00000000   -0.00000000   -0.00000000
     atom    2 type  1   force =    -0.00000000    0.00000000    0.00000000
     The local contribution  to forces
     atom    1 type  1   force =    -0.00000000    0.00000000    0.00000000
     atom    2 type  1   force =     0.00000000   -0.00000000   -0.00000000
     The core correction contribution to forces
     atom    1 type  1   force =    -0.00000000   -0.00000000   -0.00000000
     atom    2 type  1   force =     0.00000000    0.00000000    0.00000000
     The Hubbard contrib.    to forces
     atom    1 type  1   force =     0.00000000    0.00000000    0.00000000
     atom    2 type  1   force =     0.00000000    0.00000000    0.00000000
     The SCF correction term to forces
     atom    1 type  1   force =    -0.00000000    0.00000000    0.00000000
     atom    2 type  1   force =    -0.00000000   -0.00000000   -0.00000000

     Total force =     0.000000     Total SCF correction =     0.000000


     Computing stress (Cartesian axis) and pressure

          total   stress  (Ry/bohr**3)                   (kbar)     P=      180.26
   0.00122537   0.00000000   0.00000000          180.26        0.00        0.00
   0.00000000   0.00122537  -0.00000000            0.00      180.26       -0.00
   0.00000000  -0.00000000   0.00122537            0.00       -0.00      180.26


     Writing all to output data dir ./Ge_out/Ge_scf.save/

     init_run     :      1.53s CPU      1.63s WALL (       1 calls)
     electrons    :     20.31s CPU     21.44s WALL (       1 calls)
     forces       :      0.19s CPU      0.21s WALL (       1 calls)
     stress       :      1.74s CPU      1.77s WALL (       1 calls)

     Called by init_run:
     wfcinit      :      1.11s CPU      1.17s WALL (       1 calls)
     potinit      :      0.05s CPU      0.05s WALL (       1 calls)
     hinit0       :      0.32s CPU      0.33s WALL (       1 calls)

     Called by electrons:
     c_bands      :     17.08s CPU     17.99s WALL (       6 calls)
     sum_band     :      3.05s CPU      3.22s WALL (       6 calls)
     v_of_rho     :      0.18s CPU      0.21s WALL (       6 calls)
     mix_rho      :      0.01s CPU      0.02s WALL (       6 calls)

     Called by c_bands:
     init_us_2    :      0.25s CPU      0.28s WALL (     435 calls)
     init_us_2:cp :      0.25s CPU      0.28s WALL (     435 calls)
     cegterg      :     16.36s CPU     17.15s WALL (     174 calls)

     Called by *egterg:
     cdiaghg      :      0.55s CPU      0.56s WALL (     621 calls)
     h_psi        :     15.45s CPU     16.23s WALL (     679 calls)
     g_psi        :      0.06s CPU      0.06s WALL (     476 calls)

     Called by h_psi:
     h_psi:calbec :      0.39s CPU      0.41s WALL (     679 calls)
     vloc_psi     :     14.64s CPU     15.39s WALL (     679 calls)
     add_vuspsi   :      0.36s CPU      0.38s WALL (     679 calls)

     General routines
     calbec       :      0.51s CPU      0.54s WALL (     824 calls)
     fft          :      0.35s CPU      0.37s WALL (      85 calls)
     ffts         :      0.01s CPU      0.01s WALL (       6 calls)
     fftw         :     15.50s CPU     16.29s WALL (   19638 calls)

     Parallel routines

     PWSCF        :     23.93s CPU     25.60s WALL


   This run was terminated on:  16:19:24  26Apr2025            

=------------------------------------------------------------------------------=
   JOB DONE.
=------------------------------------------------------------------------------=
