
     Program PWSCF v.7.2 starts on 26Apr2025 at 16:22:10 

     This program is part of the open-source Quantum ESPRESSO suite
     for quantum simulation of materials; please cite
         "P. Giannozzi et al., J. Phys.:Condens. Matter 21 395502 (2009);
         "P. Giannozzi et al., J. Phys.:Condens. Matter 29 465901 (2017);
         "P. Giannozzi et al., J. Chem. Phys. 152 154105 (2020);
          URL http://www.quantum-espresso.org", 
     in publications or presentations arising from this work. More details at
     http://www.quantum-espresso.org/quote

     Parallel version (MPI), running on     4 processors

     MPI processes distributed on     1 nodes
     200843 MiB available memory on the printing compute node when the environment starts

     Waiting for input...
     Reading input from standard input
Warning: card &CELL ignored
Warning: card / ignored

     Current dimensions of program PWSCF are:
     Max number of different atomic species (ntypx) = 10
     Max number of k-points (npk) =  40000
     Max angular momentum in pseudopotentials (lmaxx) =  4

     R & G space division:  proc/nbgrp/npool/nimage =       4
     Subspace diagonalization in iterative solution of the eigenvalue problem:
     a serial algorithm will be used


     Parallelization info
     --------------------
     sticks:   dense  smooth     PW     G-vecs:    dense   smooth      PW
     Min         324     324     94                 7820     7820    1255
     Max         327     327     95                 7822     7822    1258
     Sum        1303    1303    379                31283    31283    5029

     Using Slab Decomposition



     bravais-lattice index     =            2
     lattice parameter (alat)  =      10.9226  a.u.
     unit-cell volume          =     325.7768 (a.u.)^3
     number of atoms/cell      =            2
     number of atomic types    =            1
     number of electrons       =        28.00
     number of Kohn-Sham states=           18
     kinetic-energy cutoff     =      80.0000  Ry
     charge density cutoff     =     320.0000  Ry
     scf convergence threshold =      1.0E-06
     mixing beta               =       0.4000
     number of iterations used =            8  plain     mixing
     Exchange-correlation= PBE
                           (   1   4   3   4   0   0   0)

     celldm(1)=  10.922617  celldm(2)=   0.000000  celldm(3)=   0.000000
     celldm(4)=   0.000000  celldm(5)=   0.000000  celldm(6)=   0.000000

     crystal axes: (cart. coord. in units of alat)
               a(1) = (  -0.500000   0.000000   0.500000 )  
               a(2) = (   0.000000   0.500000   0.500000 )  
               a(3) = (  -0.500000   0.500000   0.000000 )  

     reciprocal axes: (cart. coord. in units 2 pi/alat)
               b(1) = ( -1.000000 -1.000000  1.000000 )  
               b(2) = (  1.000000  1.000000  1.000000 )  
               b(3) = ( -1.000000  1.000000 -1.000000 )  


     PseudoPot. # 1 for Ge read from file:
     ./Ge.upf
     MD5 check sum: 087fa14d6c89b52166990835c3b338da
     Pseudo is Norm-conserving + core correction, Zval = 14.0
     Generated using ONCVPSP code by D. R. Hamann
     Using radial grid of 1560 points,  6 beta functions with: 
                l(1) =   0
                l(2) =   0
                l(3) =   1
                l(4) =   1
                l(5) =   2
                l(6) =   2

     atomic species   valence    mass     pseudopotential
        Ge            14.00    72.63000     Ge( 1.00)

     48 Sym. Ops., with inversion, found (24 have fractional translation)



   Cartesian axes

     site n.     atom                  positions (alat units)
         1           Ge  tau(   1) = (   0.0000000   0.0000000   0.0000000  )
         2           Ge  tau(   2) = (   0.2500000   0.2500000   0.2500000  )

     number of k points=    29  Gaussian smearing, width (Ry)=  0.0100
                       cart. coord. in units 2pi/alat
        k(    1) = (   0.0000000   0.0000000   0.0000000), wk =   0.0039062
        k(    2) = (  -0.1250000   0.1250000  -0.1250000), wk =   0.0312500
        k(    3) = (  -0.2500000   0.2500000  -0.2500000), wk =   0.0312500
        k(    4) = (  -0.3750000   0.3750000  -0.3750000), wk =   0.0312500
        k(    5) = (   0.5000000  -0.5000000   0.5000000), wk =   0.0156250
        k(    6) = (   0.0000000   0.2500000   0.0000000), wk =   0.0234375
        k(    7) = (  -0.1250000   0.3750000  -0.1250000), wk =   0.0937500
        k(    8) = (  -0.2500000   0.5000000  -0.2500000), wk =   0.0937500
        k(    9) = (   0.6250000  -0.3750000   0.6250000), wk =   0.0937500
        k(   10) = (   0.5000000  -0.2500000   0.5000000), wk =   0.0937500
        k(   11) = (   0.3750000  -0.1250000   0.3750000), wk =   0.0937500
        k(   12) = (   0.2500000   0.0000000   0.2500000), wk =   0.0468750
        k(   13) = (   0.0000000   0.5000000   0.0000000), wk =   0.0234375
        k(   14) = (  -0.1250000   0.6250000  -0.1250000), wk =   0.0937500
        k(   15) = (   0.7500000  -0.2500000   0.7500000), wk =   0.0937500
        k(   16) = (   0.6250000  -0.1250000   0.6250000), wk =   0.0937500
        k(   17) = (   0.5000000   0.0000000   0.5000000), wk =   0.0468750
        k(   18) = (   0.0000000   0.7500000   0.0000000), wk =   0.0234375
        k(   19) = (   0.8750000  -0.1250000   0.8750000), wk =   0.0937500
        k(   20) = (   0.7500000   0.0000000   0.7500000), wk =   0.0468750
        k(   21) = (   0.0000000  -1.0000000   0.0000000), wk =   0.0117188
        k(   22) = (  -0.2500000   0.5000000   0.0000000), wk =   0.0937500
        k(   23) = (   0.6250000  -0.3750000   0.8750000), wk =   0.1875000
        k(   24) = (   0.5000000  -0.2500000   0.7500000), wk =   0.0937500
        k(   25) = (   0.7500000  -0.2500000   1.0000000), wk =   0.0937500
        k(   26) = (   0.6250000  -0.1250000   0.8750000), wk =   0.1875000
        k(   27) = (   0.5000000   0.0000000   0.7500000), wk =   0.0937500
        k(   28) = (  -0.2500000  -1.0000000   0.0000000), wk =   0.0468750
        k(   29) = (  -0.5000000  -1.0000000   0.0000000), wk =   0.0234375

     Dense  grid:    31283 G-vectors     FFT dimensions: (  48,  48,  48)

     Estimated max dynamical RAM per process >      16.38 MB

     Estimated total dynamical RAM >      65.54 MB

     Initial potential from superposition of free atoms

     starting charge      27.9984, renormalised to      28.0000
     Starting wfcs are   18 randomized atomic wfcs

     total cpu time spent up to now is        1.9 secs

     Self-consistent Calculation

     iteration #  1     ecut=    80.00 Ry     beta= 0.40
     Davidson diagonalization with overlap
     ethr =  1.00E-02,  avg # of iterations =  3.8

     Threshold (ethr) on eigenvalues was too large:
     Diagonalizing with lowered threshold

     Davidson diagonalization with overlap
     ethr =  1.02E-04,  avg # of iterations =  4.1

     total cpu time spent up to now is       10.5 secs

     total energy              =    -357.28546145 Ry
     estimated scf accuracy    <       0.03080628 Ry

     iteration #  2     ecut=    80.00 Ry     beta= 0.40
     Davidson diagonalization with overlap
     ethr =  1.10E-04,  avg # of iterations =  1.0

     total cpu time spent up to now is       13.6 secs

     total energy              =    -357.28434282 Ry
     estimated scf accuracy    <       0.00956840 Ry

     iteration #  3     ecut=    80.00 Ry     beta= 0.40
     Davidson diagonalization with overlap
     ethr =  3.42E-05,  avg # of iterations =  1.2

     total cpu time spent up to now is       16.8 secs

     total energy              =    -357.28482340 Ry
     estimated scf accuracy    <       0.00010910 Ry

     iteration #  4     ecut=    80.00 Ry     beta= 0.40
     Davidson diagonalization with overlap
     ethr =  3.90E-07,  avg # of iterations =  2.9

     total cpu time spent up to now is       21.1 secs

     total energy              =    -357.28484583 Ry
     estimated scf accuracy    <       0.00000877 Ry

     iteration #  5     ecut=    80.00 Ry     beta= 0.40
     Davidson diagonalization with overlap
     ethr =  3.13E-08,  avg # of iterations =  1.7

     total cpu time spent up to now is       24.4 secs

     End of self-consistent calculation

          k = 0.0000 0.0000 0.0000 (  3839 PWs)   bands (ev):

   -16.0985 -16.0985 -16.0985 -16.0689 -16.0689 -15.8895 -15.8895 -15.8895
   -15.8829 -15.8829  -3.6300   8.1309   8.6701   8.6701   8.6701  11.1934
    11.1934  11.1934

          k =-0.1250 0.1250-0.1250 (  3900 PWs)   bands (ev):

   -16.1053 -16.1053 -16.0963 -16.0594 -16.0594 -15.9016 -15.9016 -15.8920
   -15.8723 -15.8723  -3.4512   6.2053   8.3633   8.3633   9.4354  11.6087
    11.6087  11.9735

          k =-0.2500 0.2500-0.2500 (  3927 PWs)   bands (ev):

   -16.1139 -16.1139 -16.0910 -16.0450 -16.0450 -15.9140 -15.9140 -15.8980
   -15.8629 -15.8629  -2.9342   4.0187   7.8536   7.8536   9.1335  12.2169
    12.2169  13.9471

          k =-0.3750 0.3750-0.3750 (  3909 PWs)   bands (ev):

   -16.1183 -16.1183 -16.0855 -16.0361 -16.0361 -15.9208 -15.9208 -15.9042
   -15.8579 -15.8579  -2.1836   2.2029   7.4893   7.4893   8.7902  12.3922
    12.3922  15.7882

          k = 0.5000-0.5000 0.5000 (  3906 PWs)   bands (ev):

   -16.1194 -16.1194 -16.0832 -16.0336 -16.0336 -15.9225 -15.9225 -15.9069
   -15.8564 -15.8564  -1.6939   1.3499   7.3621   7.3621   8.6648  12.3742
    12.3742  15.7702

          k = 0.0000 0.2500 0.0000 (  3911 PWs)   bands (ev):

   -16.1047 -16.1034 -16.1034 -16.0615 -16.0491 -15.9197 -15.8896 -15.8823
   -15.8823 -15.8689  -3.3906   6.1117   7.8702   7.8702  10.5456  10.5811
    12.2965  12.2965

          k =-0.1250 0.3750-0.1250 (  3934 PWs)   bands (ev):

   -16.1163 -16.1104 -16.0957 -16.0498 -16.0324 -15.9370 -15.9031 -15.8858
   -15.8704 -15.8601  -2.9815   4.4760   7.2452   7.3453  10.4669  11.1000
    13.0837  13.3716

          k =-0.2500 0.5000-0.2500 (  3924 PWs)   bands (ev):

   -16.1256 -16.1169 -16.0831 -16.0370 -16.0221 -15.9446 -15.9163 -15.8994
   -15.8607 -15.8505  -2.2848   2.6753   6.5919   7.0467  10.1276  11.8802
    13.2856  14.1587

          k = 0.6250-0.3750 0.6250 (  3937 PWs)   bands (ev):

   -16.1295 -16.1213 -16.0725 -16.0272 -16.0238 -15.9385 -15.9275 -15.9126
   -15.8542 -15.8463  -1.5990   1.4457   6.1605   7.0399   9.8973  12.1684
    13.0512  15.6485

          k = 0.5000-0.2500 0.5000 (  3933 PWs)   bands (ev):

   -16.1274 -16.1233 -16.0710 -16.0329 -16.0225 -15.9347 -15.9228 -15.9185
   -15.8515 -15.8493  -1.7858   1.7472   6.0372   7.3165   9.8971  12.4025
    12.7665  15.7686

          k = 0.3750-0.1250 0.3750 (  3919 PWs)   bands (ev):

   -16.1216 -16.1198 -16.0807 -16.0427 -16.0281 -15.9320 -15.9183 -15.9016
   -15.8596 -15.8534  -2.5453   3.2486   6.2877   7.8076  10.0880  12.3588
    12.5291  14.1391

          k = 0.2500 0.0000 0.2500 (  3905 PWs)   bands (ev):

   -16.1148 -16.1090 -16.0930 -16.0532 -16.0437 -15.9189 -15.9098 -15.8849
   -15.8748 -15.8605  -3.1576   4.9906   7.0691   8.3123  10.1157  11.7332
    11.8440  13.2328

          k = 0.0000 0.5000 0.0000 (  3928 PWs)   bands (ev):

   -16.1142 -16.1142 -16.1032 -16.0406 -16.0109 -15.9635 -15.9091 -15.8707
   -15.8660 -15.8660  -2.6808   3.9245   6.7867   6.7867   9.7381  11.2413
    14.2568  14.2568

          k =-0.1250 0.6250-0.1250 (  3946 PWs)   bands (ev):

   -16.1264 -16.1199 -16.0872 -16.0260 -15.9940 -15.9808 -15.9238 -15.8897
   -15.8569 -15.8499  -2.0641   2.6616   6.0205   6.4575   9.9711  11.2600
    14.2148  14.8712

          k = 0.7500-0.2500 0.7500 (  3940 PWs)   bands (ev):

   -16.1370 -16.1246 -16.0662 -16.0115 -15.9942 -15.9782 -15.9400 -15.9121
   -15.8497 -15.8379  -1.2954   1.4540   5.2036   6.4415  10.0807  12.6743
    13.9593  14.6746

          k = 0.6250-0.1250 0.6250 (  3934 PWs)   bands (ev):

   -16.1398 -16.1273 -16.0556 -16.0092 -16.0021 -15.9598 -15.9524 -15.9236
   -15.8463 -15.8354  -1.1502   1.2635   4.8136   6.7385  10.2414  13.4633
    14.1549  15.1585

          k = 0.5000 0.0000 0.5000 (  3943 PWs)   bands (ev):

   -16.1330 -16.1267 -16.0611 -16.0316 -16.0092 -15.9486 -15.9300 -15.9224
   -15.8474 -15.8439  -1.8676   2.2557   5.0881   7.2730  10.4969  13.3126
    13.5610  13.7851

          k = 0.0000 0.7500 0.0000 (  3960 PWs)   bands (ev):

   -16.1239 -16.1239 -16.0861 -16.0109 -16.0097 -15.9670 -15.9385 -15.8906
   -15.8507 -15.8507  -1.5281   1.8650   6.0636   6.0636   9.3256  10.2609
    16.3326  16.3327

          k = 0.8750-0.1250 0.8750 (  3947 PWs)   bands (ev):

   -16.1331 -16.1269 -16.0642 -16.0243 -15.9925 -15.9561 -15.9529 -15.9133
   -15.8460 -15.8405  -0.7539   0.8836   5.3708   5.9806   9.6289  10.6125
    16.1664  16.6017

          k = 0.7500 0.0000 0.7500 (  3927 PWs)   bands (ev):

   -16.1416 -16.1284 -16.0522 -16.0032 -15.9834 -15.9710 -15.9676 -15.9255
   -15.8444 -15.8324  -0.4445   0.5769   4.6615   6.2251   9.8594  12.6210
    15.5018  15.7378

          k = 0.0000-1.0000 0.0000 (  3940 PWs)   bands (ev):

   -16.1276 -16.1276 -16.0539 -16.0539 -15.9738 -15.9738 -15.9247 -15.9247
   -15.8446 -15.8446   0.0146   0.0146   5.8146   5.8146   9.4948   9.4948
    17.6606  17.6607

          k =-0.2500 0.5000 0.0000 (  3925 PWs)   bands (ev):

   -16.1227 -16.1208 -16.0841 -16.0387 -16.0147 -15.9552 -15.9139 -15.8957
   -15.8584 -15.8529  -2.4709   3.3387   6.0283   7.1672  11.0041  11.1942
    13.2869  13.9837

          k = 0.6250-0.3750 0.8750 (  3933 PWs)   bands (ev):

   -16.1328 -16.1262 -16.0657 -16.0261 -16.0041 -15.9627 -15.9278 -15.9160
   -15.8490 -15.8430  -1.7198   1.9902   5.3689   6.7285  10.9480  12.0042
    13.4725  14.5944

          k = 0.5000-0.2500 0.7500 (  3926 PWs)   bands (ev):

   -16.1372 -16.1274 -16.0573 -16.0166 -16.0053 -15.9585 -15.9414 -15.9230
   -15.8470 -15.8379  -1.2093   1.2366   5.1864   6.5321  10.8695  12.0705
    14.2271  15.3199

          k = 0.7500-0.2500 1.0000 (  3967 PWs)   bands (ev):

   -16.1307 -16.1300 -16.0680 -16.0105 -15.9985 -15.9762 -15.9399 -15.9092
   -15.8446 -15.8441  -1.3721   1.6700   5.4234   5.9947  10.5528  11.1389
    14.0630  16.2009

          k = 0.6250-0.1250 0.8750 (  3950 PWs)   bands (ev):

   -16.1400 -16.1322 -16.0462 -16.0005 -15.9944 -15.9734 -15.9578 -15.9300
   -15.8414 -15.8341  -0.6548   0.8218   4.8381   5.8173  10.9156  12.7105
    13.6401  15.4381

          k = 0.5000 0.0000 0.7500 (  3935 PWs)   bands (ev):

   -16.1404 -16.1317 -16.0469 -16.0065 -15.9848 -15.9806 -15.9537 -15.9297
   -15.8421 -15.8343  -0.9602   1.1642   4.6991   6.1503  11.2208  13.0302
    13.5104  15.1437

          k =-0.2500-1.0000 0.0000 (  3946 PWs)   bands (ev):

   -16.1339 -16.1339 -16.0382 -16.0382 -15.9750 -15.9750 -15.9382 -15.9382
   -15.8393 -15.8393   0.0537   0.0537   5.3928   5.3928  10.6035  10.6035
    15.9308  15.9308

          k =-0.5000-1.0000 0.0000 (  3972 PWs)   bands (ev):

   -16.1389 -16.1389 -16.0189 -16.0189 -15.9795 -15.9795 -15.9525 -15.9525
   -15.8348 -15.8348   0.0944   0.0944   5.0620   5.0620  12.7383  12.7383
    13.3404  13.3404

     the Fermi energy is     8.6074 ev

!    total energy              =    -357.28484596 Ry
     estimated scf accuracy    <       0.00000086 Ry
     smearing contrib. (-TS)   =      -0.00008636 Ry
     internal energy E=F+TS    =    -357.28475959 Ry

     The total energy is F=E-TS. E is the sum of the following terms:
     one-electron contribution =    -189.97219734 Ry
     hartree contribution      =     113.26736159 Ry
     xc contribution           =     -87.25401732 Ry
     ewald contribution        =    -193.32590653 Ry

     convergence has been achieved in   5 iterations

     Forces acting on atoms (cartesian axes, Ry/au):

     atom    1 type  1   force =     0.00000000    0.00000000    0.00000000
     atom    2 type  1   force =     0.00000000    0.00000000    0.00000000
     The non-local contrib.  to forces
     atom    1 type  1   force =     0.00000000    0.00000000   -0.00000000
     atom    2 type  1   force =    -0.00000000   -0.00000000    0.00000000
     The ionic contribution  to forces
     atom    1 type  1   force =     0.00000000   -0.00000000    0.00000000
     atom    2 type  1   force =    -0.00000000    0.00000000    0.00000000
     The local contribution  to forces
     atom    1 type  1   force =     0.00000000   -0.00000000    0.00000000
     atom    2 type  1   force =    -0.00000000    0.00000000   -0.00000000
     The core correction contribution to forces
     atom    1 type  1   force =    -0.00000000   -0.00000000   -0.00000000
     atom    2 type  1   force =     0.00000000   -0.00000000   -0.00000000
     The Hubbard contrib.    to forces
     atom    1 type  1   force =     0.00000000    0.00000000    0.00000000
     atom    2 type  1   force =     0.00000000    0.00000000    0.00000000
     The SCF correction term to forces
     atom    1 type  1   force =     0.00000000    0.00000000   -0.00000000
     atom    2 type  1   force =     0.00000000   -0.00000000    0.00000000

     Total force =     0.000000     Total SCF correction =     0.000000


     Computing stress (Cartesian axis) and pressure

          total   stress  (Ry/bohr**3)                   (kbar)     P=       -8.29
  -0.00005636   0.00000000   0.00000000           -8.29        0.00        0.00
   0.00000000  -0.00005636  -0.00000000            0.00       -8.29       -0.00
   0.00000000  -0.00000000  -0.00005636            0.00       -0.00       -8.29


     Writing all to output data dir ./Ge_out/Ge_scf.save/

     init_run     :      1.63s CPU      1.73s WALL (       1 calls)
     electrons    :     21.10s CPU     22.46s WALL (       1 calls)
     forces       :      0.23s CPU      0.24s WALL (       1 calls)
     stress       :      2.12s CPU      2.16s WALL (       1 calls)

     Called by init_run:
     wfcinit      :      1.18s CPU      1.24s WALL (       1 calls)
     potinit      :      0.05s CPU      0.06s WALL (       1 calls)
     hinit0       :      0.32s CPU      0.33s WALL (       1 calls)

     Called by electrons:
     c_bands      :     17.76s CPU     18.83s WALL (       6 calls)
     sum_band     :      3.15s CPU      3.39s WALL (       6 calls)
     v_of_rho     :      0.19s CPU      0.21s WALL (       6 calls)
     mix_rho      :      0.01s CPU      0.02s WALL (       6 calls)

     Called by c_bands:
     init_us_2    :      0.31s CPU      0.35s WALL (     435 calls)
     init_us_2:cp :      0.31s CPU      0.35s WALL (     435 calls)
     cegterg      :     16.87s CPU     17.76s WALL (     174 calls)

     Called by *egterg:
     cdiaghg      :      0.52s CPU      0.53s WALL (     573 calls)
     h_psi        :     15.76s CPU     16.66s WALL (     631 calls)
     g_psi        :      0.08s CPU      0.08s WALL (     428 calls)

     Called by h_psi:
     h_psi:calbec :      0.48s CPU      0.52s WALL (     631 calls)
     vloc_psi     :     14.75s CPU     15.61s WALL (     631 calls)
     add_vuspsi   :      0.45s CPU      0.46s WALL (     631 calls)

     General routines
     calbec       :      0.61s CPU      0.65s WALL (     776 calls)
     fft          :      0.36s CPU      0.38s WALL (      85 calls)
     ffts         :      0.00s CPU      0.01s WALL (       6 calls)
     fftw         :     15.71s CPU     16.65s WALL (   19534 calls)

     Parallel routines

     PWSCF        :     25.25s CPU     27.26s WALL


   This run was terminated on:  16:22:37  26Apr2025            

=------------------------------------------------------------------------------=
   JOB DONE.
=------------------------------------------------------------------------------=
