
     Program PWSCF v.7.2 starts on 26Apr2025 at 16:20:47 

     This program is part of the open-source Quantum ESPRESSO suite
     for quantum simulation of materials; please cite
         "P. Giannozzi et al., J. Phys.:Condens. Matter 21 395502 (2009);
         "P. Giannozzi et al., J. Phys.:Condens. Matter 29 465901 (2017);
         "P. Giannozzi et al., J. Chem. Phys. 152 154105 (2020);
          URL http://www.quantum-espresso.org", 
     in publications or presentations arising from this work. More details at
     http://www.quantum-espresso.org/quote

     Parallel version (MPI), running on     4 processors

     MPI processes distributed on     1 nodes
     200847 MiB available memory on the printing compute node when the environment starts

     Waiting for input...
     Reading input from standard input
Warning: card &CELL ignored
Warning: card / ignored

     Current dimensions of program PWSCF are:
     Max number of different atomic species (ntypx) = 10
     Max number of k-points (npk) =  40000
     Max angular momentum in pseudopotentials (lmaxx) =  4

     R & G space division:  proc/nbgrp/npool/nimage =       4
     Subspace diagonalization in iterative solution of the eigenvalue problem:
     a serial algorithm will be used


     Parallelization info
     --------------------
     sticks:   dense  smooth     PW     G-vecs:    dense   smooth      PW
     Min         321     321     94                 7646     7646    1227
     Max         322     322     95                 7648     7648    1228
     Sum        1285    1285    379                30587    30587    4909

     Using Slab Decomposition



     bravais-lattice index     =            2
     lattice parameter (alat)  =      10.8092  a.u.
     unit-cell volume          =     315.7364 (a.u.)^3
     number of atoms/cell      =            2
     number of atomic types    =            1
     number of electrons       =        28.00
     number of Kohn-Sham states=           18
     kinetic-energy cutoff     =      80.0000  Ry
     charge density cutoff     =     320.0000  Ry
     scf convergence threshold =      1.0E-06
     mixing beta               =       0.4000
     number of iterations used =            8  plain     mixing
     Exchange-correlation= PBE
                           (   1   4   3   4   0   0   0)

     celldm(1)=  10.809233  celldm(2)=   0.000000  celldm(3)=   0.000000
     celldm(4)=   0.000000  celldm(5)=   0.000000  celldm(6)=   0.000000

     crystal axes: (cart. coord. in units of alat)
               a(1) = (  -0.500000   0.000000   0.500000 )  
               a(2) = (   0.000000   0.500000   0.500000 )  
               a(3) = (  -0.500000   0.500000   0.000000 )  

     reciprocal axes: (cart. coord. in units 2 pi/alat)
               b(1) = ( -1.000000 -1.000000  1.000000 )  
               b(2) = (  1.000000  1.000000  1.000000 )  
               b(3) = ( -1.000000  1.000000 -1.000000 )  


     PseudoPot. # 1 for Ge read from file:
     ./Ge.upf
     MD5 check sum: 087fa14d6c89b52166990835c3b338da
     Pseudo is Norm-conserving + core correction, Zval = 14.0
     Generated using ONCVPSP code by D. R. Hamann
     Using radial grid of 1560 points,  6 beta functions with: 
                l(1) =   0
                l(2) =   0
                l(3) =   1
                l(4) =   1
                l(5) =   2
                l(6) =   2

     atomic species   valence    mass     pseudopotential
        Ge            14.00    72.63000     Ge( 1.00)

     48 Sym. Ops., with inversion, found (24 have fractional translation)



   Cartesian axes

     site n.     atom                  positions (alat units)
         1           Ge  tau(   1) = (   0.0000000   0.0000000   0.0000000  )
         2           Ge  tau(   2) = (   0.2500000   0.2500000   0.2500000  )

     number of k points=    29  Gaussian smearing, width (Ry)=  0.0100
                       cart. coord. in units 2pi/alat
        k(    1) = (   0.0000000   0.0000000   0.0000000), wk =   0.0039062
        k(    2) = (  -0.1250000   0.1250000  -0.1250000), wk =   0.0312500
        k(    3) = (  -0.2500000   0.2500000  -0.2500000), wk =   0.0312500
        k(    4) = (  -0.3750000   0.3750000  -0.3750000), wk =   0.0312500
        k(    5) = (   0.5000000  -0.5000000   0.5000000), wk =   0.0156250
        k(    6) = (   0.0000000   0.2500000   0.0000000), wk =   0.0234375
        k(    7) = (  -0.1250000   0.3750000  -0.1250000), wk =   0.0937500
        k(    8) = (  -0.2500000   0.5000000  -0.2500000), wk =   0.0937500
        k(    9) = (   0.6250000  -0.3750000   0.6250000), wk =   0.0937500
        k(   10) = (   0.5000000  -0.2500000   0.5000000), wk =   0.0937500
        k(   11) = (   0.3750000  -0.1250000   0.3750000), wk =   0.0937500
        k(   12) = (   0.2500000   0.0000000   0.2500000), wk =   0.0468750
        k(   13) = (   0.0000000   0.5000000   0.0000000), wk =   0.0234375
        k(   14) = (  -0.1250000   0.6250000  -0.1250000), wk =   0.0937500
        k(   15) = (   0.7500000  -0.2500000   0.7500000), wk =   0.0937500
        k(   16) = (   0.6250000  -0.1250000   0.6250000), wk =   0.0937500
        k(   17) = (   0.5000000   0.0000000   0.5000000), wk =   0.0468750
        k(   18) = (   0.0000000   0.7500000   0.0000000), wk =   0.0234375
        k(   19) = (   0.8750000  -0.1250000   0.8750000), wk =   0.0937500
        k(   20) = (   0.7500000   0.0000000   0.7500000), wk =   0.0468750
        k(   21) = (   0.0000000  -1.0000000   0.0000000), wk =   0.0117188
        k(   22) = (  -0.2500000   0.5000000   0.0000000), wk =   0.0937500
        k(   23) = (   0.6250000  -0.3750000   0.8750000), wk =   0.1875000
        k(   24) = (   0.5000000  -0.2500000   0.7500000), wk =   0.0937500
        k(   25) = (   0.7500000  -0.2500000   1.0000000), wk =   0.0937500
        k(   26) = (   0.6250000  -0.1250000   0.8750000), wk =   0.1875000
        k(   27) = (   0.5000000   0.0000000   0.7500000), wk =   0.0937500
        k(   28) = (  -0.2500000  -1.0000000   0.0000000), wk =   0.0468750
        k(   29) = (  -0.5000000  -1.0000000   0.0000000), wk =   0.0234375

     Dense  grid:    30587 G-vectors     FFT dimensions: (  48,  48,  48)

     Estimated max dynamical RAM per process >      16.01 MB

     Estimated total dynamical RAM >      64.02 MB

     Initial potential from superposition of free atoms

     starting charge      27.9984, renormalised to      28.0000
     Starting wfcs are   18 randomized atomic wfcs

     total cpu time spent up to now is        1.9 secs

     Self-consistent Calculation

     iteration #  1     ecut=    80.00 Ry     beta= 0.40
     Davidson diagonalization with overlap
     ethr =  1.00E-02,  avg # of iterations =  3.8

     Threshold (ethr) on eigenvalues was too large:
     Diagonalizing with lowered threshold

     Davidson diagonalization with overlap
     ethr =  1.07E-04,  avg # of iterations =  3.8

     total cpu time spent up to now is       10.3 secs

     total energy              =    -357.28523506 Ry
     estimated scf accuracy    <       0.03244708 Ry

     iteration #  2     ecut=    80.00 Ry     beta= 0.40
     Davidson diagonalization with overlap
     ethr =  1.16E-04,  avg # of iterations =  1.0

     total cpu time spent up to now is       13.4 secs

     total energy              =    -357.28398233 Ry
     estimated scf accuracy    <       0.01000532 Ry

     iteration #  3     ecut=    80.00 Ry     beta= 0.40
     Davidson diagonalization with overlap
     ethr =  3.57E-05,  avg # of iterations =  1.4

     total cpu time spent up to now is       16.5 secs

     total energy              =    -357.28450093 Ry
     estimated scf accuracy    <       0.00011460 Ry

     iteration #  4     ecut=    80.00 Ry     beta= 0.40
     Davidson diagonalization with overlap
     ethr =  4.09E-07,  avg # of iterations =  3.2

     total cpu time spent up to now is       20.8 secs

     total energy              =    -357.28452392 Ry
     estimated scf accuracy    <       0.00000906 Ry

     iteration #  5     ecut=    80.00 Ry     beta= 0.40
     Davidson diagonalization with overlap
     ethr =  3.23E-08,  avg # of iterations =  1.8

     total cpu time spent up to now is       23.9 secs

     End of self-consistent calculation

          k = 0.0000 0.0000 0.0000 (  3839 PWs)   bands (ev):

   -15.7137 -15.7137 -15.7137 -15.6816 -15.6816 -15.4874 -15.4874 -15.4874
   -15.4782 -15.4782  -3.4308   8.8322   9.0954   9.0954   9.0954  11.6342
    11.6342  11.6342

          k =-0.1250 0.1250-0.1250 (  3774 PWs)   bands (ev):

   -15.7211 -15.7211 -15.7113 -15.6712 -15.6712 -15.4996 -15.4996 -15.4900
   -15.4676 -15.4676  -3.2465   6.6902   8.7753   8.7753   9.9910  12.0653
    12.0653  12.4862

          k =-0.2500 0.2500-0.2500 (  3807 PWs)   bands (ev):

   -15.7304 -15.7304 -15.7056 -15.6555 -15.6555 -15.5128 -15.5128 -15.4966
   -15.4577 -15.4577  -2.7127   4.4163   8.2477   8.2477   9.6588  12.6845
    12.6845  14.5456

          k =-0.3750 0.3750-0.3750 (  3819 PWs)   bands (ev):

   -15.7351 -15.7351 -15.6998 -15.6459 -15.6459 -15.5198 -15.5198 -15.5033
   -15.4524 -15.4524  -1.9342   2.5335   7.8724   7.8724   9.3066  12.8457
    12.8457  16.2960

          k = 0.5000-0.5000 0.5000 (  3828 PWs)   bands (ev):

   -15.7362 -15.7362 -15.6973 -15.6432 -15.6432 -15.5216 -15.5216 -15.5062
   -15.4509 -15.4509  -1.4214   1.6447   7.7415   7.7415   9.1793  12.8191
    12.8191  16.2193

          k = 0.0000 0.2500 0.0000 (  3803 PWs)   bands (ev):

   -15.7206 -15.7189 -15.7189 -15.6735 -15.6599 -15.5196 -15.4856 -15.4795
   -15.4795 -15.4636  -3.1841   6.6241   8.2602   8.2602  11.0046  11.1480
    12.7812  12.7812

          k =-0.1250 0.3750-0.1250 (  3807 PWs)   bands (ev):

   -15.7331 -15.7265 -15.7108 -15.6607 -15.6417 -15.5384 -15.5004 -15.4828
   -15.4662 -15.4545  -2.7620   4.9133   7.6271   7.7174  10.9555  11.6138
    13.5887  13.8775

          k =-0.2500 0.5000-0.2500 (  3817 PWs)   bands (ev):

   -15.7431 -15.7335 -15.6972 -15.6468 -15.6305 -15.5466 -15.5148 -15.4975
   -15.4556 -15.4442  -2.0410   3.0384   6.9618   7.4105  10.6354  12.3538
    13.7760  14.6492

          k = 0.6250-0.3750 0.6250 (  3810 PWs)   bands (ev):

   -15.7472 -15.7382 -15.6857 -15.6362 -15.6325 -15.5396 -15.5270 -15.5118
   -15.4485 -15.4398  -1.3256   1.7570   6.5179   7.4056  10.4064  12.6161
    13.5210  16.1817

          k = 0.5000-0.2500 0.5000 (  3812 PWs)   bands (ev):

   -15.7450 -15.7405 -15.6841 -15.6424 -15.6310 -15.5351 -15.5220 -15.5187
   -15.4453 -15.4432  -1.5213   2.0719   6.3854   7.6932  10.4136  12.8512
    13.2309  16.3363

          k = 0.3750-0.1250 0.3750 (  3801 PWs)   bands (ev):

   -15.7388 -15.7367 -15.6945 -15.6531 -15.6371 -15.5325 -15.5179 -15.4994
   -15.4544 -15.4472  -2.3107   3.6347   6.6321   8.2025  10.6202  12.8264
    13.0072  14.6823

          k = 0.2500 0.0000 0.2500 (  3789 PWs)   bands (ev):

   -15.7315 -15.7250 -15.7078 -15.6645 -15.6540 -15.5184 -15.5088 -15.4812
   -15.4712 -15.4549  -2.9437   5.4436   7.4279   8.7261  10.6745  12.1885
    12.3225  13.7693

          k = 0.0000 0.5000 0.0000 (  3831 PWs)   bands (ev):

   -15.7306 -15.7306 -15.7193 -15.6506 -15.6183 -15.5675 -15.5068 -15.4656
   -15.4616 -15.4616  -2.4522   4.3671   7.1390   7.1390  10.1390  11.7560
    14.8038  14.8038

          k =-0.1250 0.6250-0.1250 (  3824 PWs)   bands (ev):

   -15.7439 -15.7367 -15.7019 -15.6346 -15.6000 -15.5863 -15.5230 -15.4865
   -15.4515 -15.4437  -1.8151   3.0578   6.3482   6.7997  10.3840  11.7430
    14.7461  15.4236

          k = 0.7500-0.2500 0.7500 (  3830 PWs)   bands (ev):

   -15.7554 -15.7418 -15.6791 -15.6189 -15.6004 -15.5831 -15.5407 -15.5109
   -15.4436 -15.4307  -1.0168   1.8010   5.5058   6.7844  10.5099  13.2091
    14.4562  15.2024

          k = 0.6250-0.1250 0.6250 (  3810 PWs)   bands (ev):

   -15.7584 -15.7449 -15.6675 -15.6166 -15.6086 -15.5631 -15.5544 -15.5233
   -15.4397 -15.4279  -0.8635   1.6004   5.0999   7.0927  10.6929  14.0066
    14.6701  15.7339

          k = 0.5000 0.0000 0.5000 (  3803 PWs)   bands (ev):

   -15.7510 -15.7443 -15.6733 -15.6411 -15.6163 -15.5505 -15.5311 -15.5216
   -15.4408 -15.4372  -1.6094   2.6292   5.3790   7.6472  10.9912  13.8121
    14.0974  14.3052

          k = 0.0000 0.7500 0.0000 (  3824 PWs)   bands (ev):

   -15.7410 -15.7410 -15.7009 -15.6192 -15.6168 -15.5706 -15.5389 -15.4873
   -15.4448 -15.4448  -1.2628   2.2413   6.3928   6.3928   9.7140  10.6786
    16.9466  16.9466

          k = 0.8750-0.1250 0.8750 (  3828 PWs)   bands (ev):

   -15.7511 -15.7443 -15.6771 -15.6338 -15.5981 -15.5582 -15.5552 -15.5121
   -15.4396 -15.4335  -0.4618   1.2281   5.6707   6.3075  10.0264  11.0420
    16.7877  17.2131

          k = 0.7500 0.0000 0.7500 (  3811 PWs)   bands (ev):

   -15.7604 -15.7459 -15.6640 -15.6105 -15.5881 -15.5750 -15.5709 -15.5253
   -15.4377 -15.4246  -0.1349   0.9065   4.9315   6.5607  10.2711  13.1141
    16.1139  16.3166

          k = 0.0000-1.0000 0.0000 (  3812 PWs)   bands (ev):

   -15.7450 -15.7450 -15.6660 -15.6660 -15.5775 -15.5775 -15.5244 -15.5244
   -15.4381 -15.4381   0.3302   0.3302   6.1360   6.1360   9.8851   9.8852
    18.3398  18.3398

          k =-0.2500 0.5000 0.0000 (  3804 PWs)   bands (ev):

   -15.7400 -15.7377 -15.6983 -15.6487 -15.6224 -15.5582 -15.5123 -15.4933
   -15.4532 -15.4468  -2.2347   3.7494   6.3524   7.5387  11.4459  11.7574
    13.7331  14.5210

          k = 0.6250-0.3750 0.8750 (  3812 PWs)   bands (ev):

   -15.7509 -15.7437 -15.6783 -15.6349 -15.6109 -15.5663 -15.5273 -15.5154
   -15.4427 -15.4362  -1.4564   2.3501   5.6791   7.0804  11.4637  12.4727
    13.9509  15.1306

          k = 0.5000-0.2500 0.7500 (  3806 PWs)   bands (ev):

   -15.7556 -15.7449 -15.6693 -15.6247 -15.6123 -15.5616 -15.5423 -15.5228
   -15.4405 -15.4307  -0.9230   1.5623   5.4968   6.8750  11.3896  12.5015
    14.7663  15.8937

          k = 0.7500-0.2500 1.0000 (  3835 PWs)   bands (ev):

   -15.7485 -15.7478 -15.6809 -15.6178 -15.6055 -15.5805 -15.5406 -15.5077
   -15.4379 -15.4375  -1.0996   2.0389   5.7266   6.3169  10.9811  11.6044
    14.5863  16.8194

          k = 0.6250-0.1250 0.8750 (  3818 PWs)   bands (ev):

   -15.7587 -15.7501 -15.6573 -15.6075 -15.6004 -15.5775 -15.5602 -15.5303
   -15.4345 -15.4265  -0.3539   1.1613   5.1176   6.1323  11.3682  13.2286
    14.1280  16.0198

          k = 0.5000 0.0000 0.7500 (  3812 PWs)   bands (ev):

   -15.7591 -15.7496 -15.6580 -15.6136 -15.5897 -15.5858 -15.5560 -15.5299
   -15.4352 -15.4267  -0.6693   1.5127   4.9731   6.4785  11.7066  13.5375
    14.0054  15.7178

          k =-0.2500-1.0000 0.0000 (  3826 PWs)   bands (ev):

   -15.7519 -15.7519 -15.6488 -15.6488 -15.5790 -15.5790 -15.5392 -15.5392
   -15.4321 -15.4321   0.3732   0.3732   5.6931   5.6931  11.0338  11.0338
    16.5248  16.5248

          k =-0.5000-1.0000 0.0000 (  3828 PWs)   bands (ev):

   -15.7575 -15.7575 -15.6276 -15.6276 -15.5841 -15.5841 -15.5547 -15.5547
   -15.4272 -15.4272   0.4184   0.4184   5.3463   5.3463  13.2899  13.2899
    13.7884  13.7884

     the Fermi energy is     9.0813 ev

!    total energy              =    -357.28452391 Ry
     estimated scf accuracy    <       0.00000096 Ry
     smearing contrib. (-TS)   =      -0.00006625 Ry
     internal energy E=F+TS    =    -357.28445765 Ry

     The total energy is F=E-TS. E is the sum of the following terms:
     one-electron contribution =    -186.66802349 Ry
     hartree contribution      =     112.02245249 Ry
     xc contribution           =     -87.28508600 Ry
     ewald contribution        =    -195.35380066 Ry

     convergence has been achieved in   5 iterations

     Forces acting on atoms (cartesian axes, Ry/au):

     atom    1 type  1   force =     0.00000000   -0.00000000    0.00000000
     atom    2 type  1   force =     0.00000000    0.00000000   -0.00000000
     The non-local contrib.  to forces
     atom    1 type  1   force =     0.00000000    0.00000000   -0.00000000
     atom    2 type  1   force =    -0.00000000    0.00000000    0.00000000
     The ionic contribution  to forces
     atom    1 type  1   force =    -0.00000000   -0.00000000    0.00000000
     atom    2 type  1   force =     0.00000000    0.00000000   -0.00000000
     The local contribution  to forces
     atom    1 type  1   force =    -0.00000000    0.00000000   -0.00000000
     atom    2 type  1   force =     0.00000000   -0.00000000    0.00000000
     The core correction contribution to forces
     atom    1 type  1   force =    -0.00000000    0.00000000    0.00000000
     atom    2 type  1   force =     0.00000000    0.00000000   -0.00000000
     The Hubbard contrib.    to forces
     atom    1 type  1   force =     0.00000000    0.00000000    0.00000000
     atom    2 type  1   force =     0.00000000    0.00000000    0.00000000
     The SCF correction term to forces
     atom    1 type  1   force =     0.00000000   -0.00000000   -0.00000000
     atom    2 type  1   force =    -0.00000000   -0.00000000   -0.00000000

     Total force =     0.000000     Total SCF correction =     0.000000


     Computing stress (Cartesian axis) and pressure

          total   stress  (Ry/bohr**3)                   (kbar)     P=       10.46
   0.00007113   0.00000000   0.00000000           10.46        0.00        0.00
   0.00000000   0.00007113  -0.00000000            0.00       10.46       -0.00
   0.00000000  -0.00000000   0.00007113            0.00       -0.00       10.46


     Writing all to output data dir ./Ge_out/Ge_scf.save/

     init_run     :      1.62s CPU      1.72s WALL (       1 calls)
     electrons    :     20.85s CPU     22.03s WALL (       1 calls)
     forces       :      0.23s CPU      0.24s WALL (       1 calls)
     stress       :      2.06s CPU      2.09s WALL (       1 calls)

     Called by init_run:
     wfcinit      :      1.15s CPU      1.21s WALL (       1 calls)
     potinit      :      0.05s CPU      0.06s WALL (       1 calls)
     hinit0       :      0.34s CPU      0.35s WALL (       1 calls)

     Called by electrons:
     c_bands      :     17.59s CPU     18.58s WALL (       6 calls)
     sum_band     :      3.07s CPU      3.22s WALL (       6 calls)
     v_of_rho     :      0.19s CPU      0.21s WALL (       6 calls)
     mix_rho      :      0.01s CPU      0.02s WALL (       6 calls)

     Called by c_bands:
     init_us_2    :      0.31s CPU      0.34s WALL (     435 calls)
     init_us_2:cp :      0.30s CPU      0.34s WALL (     435 calls)
     cegterg      :     16.72s CPU     17.56s WALL (     174 calls)

     Called by *egterg:
     cdiaghg      :      0.52s CPU      0.53s WALL (     581 calls)
     h_psi        :     15.64s CPU     16.49s WALL (     639 calls)
     g_psi        :      0.08s CPU      0.08s WALL (     436 calls)

     Called by h_psi:
     h_psi:calbec :      0.47s CPU      0.50s WALL (     639 calls)
     vloc_psi     :     14.66s CPU     15.47s WALL (     639 calls)
     add_vuspsi   :      0.44s CPU      0.46s WALL (     639 calls)

     General routines
     calbec       :      0.59s CPU      0.62s WALL (     784 calls)
     fft          :      0.35s CPU      0.38s WALL (      85 calls)
     ffts         :      0.01s CPU      0.01s WALL (       6 calls)
     fftw         :     15.59s CPU     16.43s WALL (   19554 calls)

     Parallel routines

     PWSCF        :     24.93s CPU     26.73s WALL


   This run was terminated on:  16:21:14  26Apr2025            

=------------------------------------------------------------------------------=
   JOB DONE.
=------------------------------------------------------------------------------=
