
     Program PWSCF v.7.2 starts on 26Apr2025 at 16:20:19 

     This program is part of the open-source Quantum ESPRESSO suite
     for quantum simulation of materials; please cite
         "P. Giannozzi et al., J. Phys.:Condens. Matter 21 395502 (2009);
         "P. Giannozzi et al., J. Phys.:Condens. Matter 29 465901 (2017);
         "P. Giannozzi et al., J. Chem. Phys. 152 154105 (2020);
          URL http://www.quantum-espresso.org", 
     in publications or presentations arising from this work. More details at
     http://www.quantum-espresso.org/quote

     Parallel version (MPI), running on     4 processors

     MPI processes distributed on     1 nodes
     200846 MiB available memory on the printing compute node when the environment starts

     Waiting for input...
     Reading input from standard input
Warning: card &CELL ignored
Warning: card / ignored

     Current dimensions of program PWSCF are:
     Max number of different atomic species (ntypx) = 10
     Max number of k-points (npk) =  40000
     Max angular momentum in pseudopotentials (lmaxx) =  4

     R & G space division:  proc/nbgrp/npool/nimage =       4
     Subspace diagonalization in iterative solution of the eigenvalue problem:
     a serial algorithm will be used


     Parallelization info
     --------------------
     sticks:   dense  smooth     PW     G-vecs:    dense   smooth      PW
     Min         321     321     94                 7598     7598    1203
     Max         322     322     96                 7600     7600    1204
     Sum        1285    1285    379                30395    30395    4813

     Using Slab Decomposition



     bravais-lattice index     =            2
     lattice parameter (alat)  =      10.7714  a.u.
     unit-cell volume          =     312.4361 (a.u.)^3
     number of atoms/cell      =            2
     number of atomic types    =            1
     number of electrons       =        28.00
     number of Kohn-Sham states=           18
     kinetic-energy cutoff     =      80.0000  Ry
     charge density cutoff     =     320.0000  Ry
     scf convergence threshold =      1.0E-06
     mixing beta               =       0.4000
     number of iterations used =            8  plain     mixing
     Exchange-correlation= PBE
                           (   1   4   3   4   0   0   0)

     celldm(1)=  10.771439  celldm(2)=   0.000000  celldm(3)=   0.000000
     celldm(4)=   0.000000  celldm(5)=   0.000000  celldm(6)=   0.000000

     crystal axes: (cart. coord. in units of alat)
               a(1) = (  -0.500000   0.000000   0.500000 )  
               a(2) = (   0.000000   0.500000   0.500000 )  
               a(3) = (  -0.500000   0.500000   0.000000 )  

     reciprocal axes: (cart. coord. in units 2 pi/alat)
               b(1) = ( -1.000000 -1.000000  1.000000 )  
               b(2) = (  1.000000  1.000000  1.000000 )  
               b(3) = ( -1.000000  1.000000 -1.000000 )  


     PseudoPot. # 1 for Ge read from file:
     ./Ge.upf
     MD5 check sum: 087fa14d6c89b52166990835c3b338da
     Pseudo is Norm-conserving + core correction, Zval = 14.0
     Generated using ONCVPSP code by D. R. Hamann
     Using radial grid of 1560 points,  6 beta functions with: 
                l(1) =   0
                l(2) =   0
                l(3) =   1
                l(4) =   1
                l(5) =   2
                l(6) =   2

     atomic species   valence    mass     pseudopotential
        Ge            14.00    72.63000     Ge( 1.00)

     48 Sym. Ops., with inversion, found (24 have fractional translation)



   Cartesian axes

     site n.     atom                  positions (alat units)
         1           Ge  tau(   1) = (   0.0000000   0.0000000   0.0000000  )
         2           Ge  tau(   2) = (   0.2500000   0.2500000   0.2500000  )

     number of k points=    29  Gaussian smearing, width (Ry)=  0.0100
                       cart. coord. in units 2pi/alat
        k(    1) = (   0.0000000   0.0000000   0.0000000), wk =   0.0039062
        k(    2) = (  -0.1250000   0.1250000  -0.1250000), wk =   0.0312500
        k(    3) = (  -0.2500000   0.2500000  -0.2500000), wk =   0.0312500
        k(    4) = (  -0.3750000   0.3750000  -0.3750000), wk =   0.0312500
        k(    5) = (   0.5000000  -0.5000000   0.5000000), wk =   0.0156250
        k(    6) = (   0.0000000   0.2500000   0.0000000), wk =   0.0234375
        k(    7) = (  -0.1250000   0.3750000  -0.1250000), wk =   0.0937500
        k(    8) = (  -0.2500000   0.5000000  -0.2500000), wk =   0.0937500
        k(    9) = (   0.6250000  -0.3750000   0.6250000), wk =   0.0937500
        k(   10) = (   0.5000000  -0.2500000   0.5000000), wk =   0.0937500
        k(   11) = (   0.3750000  -0.1250000   0.3750000), wk =   0.0937500
        k(   12) = (   0.2500000   0.0000000   0.2500000), wk =   0.0468750
        k(   13) = (   0.0000000   0.5000000   0.0000000), wk =   0.0234375
        k(   14) = (  -0.1250000   0.6250000  -0.1250000), wk =   0.0937500
        k(   15) = (   0.7500000  -0.2500000   0.7500000), wk =   0.0937500
        k(   16) = (   0.6250000  -0.1250000   0.6250000), wk =   0.0937500
        k(   17) = (   0.5000000   0.0000000   0.5000000), wk =   0.0468750
        k(   18) = (   0.0000000   0.7500000   0.0000000), wk =   0.0234375
        k(   19) = (   0.8750000  -0.1250000   0.8750000), wk =   0.0937500
        k(   20) = (   0.7500000   0.0000000   0.7500000), wk =   0.0468750
        k(   21) = (   0.0000000  -1.0000000   0.0000000), wk =   0.0117188
        k(   22) = (  -0.2500000   0.5000000   0.0000000), wk =   0.0937500
        k(   23) = (   0.6250000  -0.3750000   0.8750000), wk =   0.1875000
        k(   24) = (   0.5000000  -0.2500000   0.7500000), wk =   0.0937500
        k(   25) = (   0.7500000  -0.2500000   1.0000000), wk =   0.0937500
        k(   26) = (   0.6250000  -0.1250000   0.8750000), wk =   0.1875000
        k(   27) = (   0.5000000   0.0000000   0.7500000), wk =   0.0937500
        k(   28) = (  -0.2500000  -1.0000000   0.0000000), wk =   0.0468750
        k(   29) = (  -0.5000000  -1.0000000   0.0000000), wk =   0.0234375

     Dense  grid:    30395 G-vectors     FFT dimensions: (  48,  48,  48)

     Estimated max dynamical RAM per process >      15.89 MB

     Estimated total dynamical RAM >      63.55 MB

     Initial potential from superposition of free atoms

     starting charge      27.9984, renormalised to      28.0000
     Starting wfcs are   18 randomized atomic wfcs

     total cpu time spent up to now is        1.9 secs

     Self-consistent Calculation

     iteration #  1     ecut=    80.00 Ry     beta= 0.40
     Davidson diagonalization with overlap
     ethr =  1.00E-02,  avg # of iterations =  3.9

     Threshold (ethr) on eigenvalues was too large:
     Diagonalizing with lowered threshold

     Davidson diagonalization with overlap
     ethr =  1.09E-04,  avg # of iterations =  3.8

     total cpu time spent up to now is       10.3 secs

     total energy              =    -357.28486283 Ry
     estimated scf accuracy    <       0.03299356 Ry

     iteration #  2     ecut=    80.00 Ry     beta= 0.40
     Davidson diagonalization with overlap
     ethr =  1.18E-04,  avg # of iterations =  1.0

     total cpu time spent up to now is       13.4 secs

     total energy              =    -357.28356221 Ry
     estimated scf accuracy    <       0.01015181 Ry

     iteration #  3     ecut=    80.00 Ry     beta= 0.40
     Davidson diagonalization with overlap
     ethr =  3.63E-05,  avg # of iterations =  1.4

     total cpu time spent up to now is       16.5 secs

     total energy              =    -357.28409446 Ry
     estimated scf accuracy    <       0.00011639 Ry

     iteration #  4     ecut=    80.00 Ry     beta= 0.40
     Davidson diagonalization with overlap
     ethr =  4.16E-07,  avg # of iterations =  3.2

     total cpu time spent up to now is       20.8 secs

     total energy              =    -357.28411764 Ry
     estimated scf accuracy    <       0.00000920 Ry

     iteration #  5     ecut=    80.00 Ry     beta= 0.40
     Davidson diagonalization with overlap
     ethr =  3.29E-08,  avg # of iterations =  1.8

     total cpu time spent up to now is       24.0 secs

     End of self-consistent calculation

          k = 0.0000 0.0000 0.0000 (  3767 PWs)   bands (ev):

   -15.5828 -15.5828 -15.5828 -15.5499 -15.5499 -15.3505 -15.3505 -15.3505
   -15.3403 -15.3403  -3.3627   9.0722   9.2413   9.2413   9.2413  11.7849
    11.7849  11.7849

          k =-0.1250 0.1250-0.1250 (  3773 PWs)   bands (ev):

   -15.5905 -15.5905 -15.5804 -15.5392 -15.5392 -15.3627 -15.3627 -15.3532
   -15.3297 -15.3297  -3.1765   6.8535   8.9166   8.9166  10.1826  12.2214
    12.2214  12.6630

          k =-0.2500 0.2500-0.2500 (  3756 PWs)   bands (ev):

   -15.6000 -15.6000 -15.5746 -15.5231 -15.5231 -15.3762 -15.3762 -15.3599
   -15.3196 -15.3196  -2.6369   4.5510   8.3829   8.3829   9.8391  12.8443
    12.8443  14.7509

          k =-0.3750 0.3750-0.3750 (  3768 PWs)   bands (ev):

   -15.6048 -15.6048 -15.5686 -15.5132 -15.5132 -15.3833 -15.3833 -15.3668
   -15.3143 -15.3143  -1.8489   2.6457   8.0038   8.0038   9.4840  13.0005
    13.0006  16.4649

          k = 0.5000-0.5000 0.5000 (  3798 PWs)   bands (ev):

   -15.6060 -15.6060 -15.5661 -15.5105 -15.5105 -15.3850 -15.3850 -15.3698
   -15.3128 -15.3128  -1.3281   1.7446   7.8717   7.8717   9.3561  12.9710
    12.9710  16.3721

          k = 0.0000 0.2500 0.0000 (  3775 PWs)   bands (ev):

   -15.5900 -15.5882 -15.5882 -15.5416 -15.5276 -15.3834 -15.3480 -15.3423
   -15.3423 -15.3256  -3.1135   6.7978   8.3939   8.3939  11.1494  11.3561
    12.9471  12.9471

          k =-0.1250 0.3750-0.1250 (  3762 PWs)   bands (ev):

   -15.6028 -15.5960 -15.5800 -15.5284 -15.5088 -15.4028 -15.3633 -15.3456
   -15.3286 -15.3163  -2.6870   5.0617   7.7583   7.8449  11.1198  11.7928
    13.7614  14.0497

          k =-0.2500 0.5000-0.2500 (  3777 PWs)   bands (ev):

   -15.6131 -15.6032 -15.5660 -15.5141 -15.4973 -15.4111 -15.3781 -15.3606
   -15.3176 -15.3058  -1.9576   3.1617   7.0888   7.5352  10.8088  12.5163
    13.9435  14.8162

          k = 0.6250-0.3750 0.6250 (  3768 PWs)   bands (ev):

   -15.6173 -15.6080 -15.5542 -15.5032 -15.4994 -15.4039 -15.3907 -15.3754
   -15.3103 -15.3013  -1.2320   1.8626   6.6406   7.5309  10.5806  12.7693
    13.6813  16.3630

          k = 0.5000-0.2500 0.5000 (  3781 PWs)   bands (ev):

   -15.6150 -15.6104 -15.5525 -15.5096 -15.4978 -15.3990 -15.3855 -15.3826
   -15.3070 -15.3048  -1.4307   2.1822   6.5049   7.8224  10.5906  13.0045
    13.3894  16.5290

          k = 0.3750-0.1250 0.3750 (  3774 PWs)   bands (ev):

   -15.6086 -15.6065 -15.5632 -15.5206 -15.5040 -15.3965 -15.3816 -15.3625
   -15.3165 -15.3089  -2.2305   3.7657   6.7503   8.3380  10.8026  12.9861
    13.1704  14.8679

          k = 0.2500 0.0000 0.2500 (  3757 PWs)   bands (ev):

   -15.6012 -15.5944 -15.5768 -15.5323 -15.5215 -15.3821 -15.3723 -15.3436
   -15.3338 -15.3167  -2.8705   5.5972   7.5509   8.8680  10.8663  12.3442
    12.4862  13.9534

          k = 0.0000 0.5000 0.0000 (  3767 PWs)   bands (ev):

   -15.6001 -15.6001 -15.5888 -15.5180 -15.4847 -15.4328 -15.3698 -15.3276
   -15.3238 -15.3238  -2.3740   4.5179   7.2599   7.2599  10.2761  11.9304
    14.9908  14.9908

          k =-0.1250 0.6250-0.1250 (  3772 PWs)   bands (ev):

   -15.6138 -15.6065 -15.5708 -15.5015 -15.4659 -15.4521 -15.3864 -15.3492
   -15.3135 -15.3053  -1.7300   3.1929   6.4606   6.9171  10.5250  11.9070
    14.9289  15.6121

          k = 0.7500-0.2500 0.7500 (  3775 PWs)   bands (ev):

   -15.6258 -15.6117 -15.5475 -15.4853 -15.4664 -15.4487 -15.4047 -15.3743
   -15.3053 -15.2919  -0.9215   1.9192   5.6096   6.9020  10.6560  13.3912
    14.6274  15.3825

          k = 0.6250-0.1250 0.6250 (  3769 PWs)   bands (ev):

   -15.6288 -15.6149 -15.5356 -15.4831 -15.4747 -15.4281 -15.4189 -15.3870
   -15.3012 -15.2890  -0.7654   1.7151   5.1982   7.2142  10.8466  14.1927
    14.8459  15.9295

          k = 0.5000 0.0000 0.5000 (  3775 PWs)   bands (ev):

   -15.6212 -15.6143 -15.5414 -15.5082 -15.4827 -15.4150 -15.3954 -15.3851
   -15.3023 -15.2987  -1.5211   2.7564   5.4788   7.7755  11.1595  13.9828
    14.2805  14.4838

          k = 0.0000 0.7500 0.0000 (  3792 PWs)   bands (ev):

   -15.6108 -15.6108 -15.5699 -15.4860 -15.4831 -15.4356 -15.4029 -15.3499
   -15.3065 -15.3065  -1.1721   2.3698   6.5057   6.5057   9.8469  10.8208
    17.1562  17.1562

          k = 0.8750-0.1250 0.8750 (  3783 PWs)   bands (ev):

   -15.6213 -15.6142 -15.5455 -15.5009 -15.4638 -15.4228 -15.4198 -15.3755
   -15.3011 -15.2948  -0.3620   1.3457   5.7735   6.4196  10.1621  11.1885
    17.0003  17.4216

          k = 0.7500 0.0000 0.7500 (  3779 PWs)   bands (ev):

   -15.6308 -15.6159 -15.5320 -15.4769 -15.4536 -15.4403 -15.4359 -15.3891
   -15.2991 -15.2857  -0.0290   1.0191   5.0240   6.6758  10.4116  13.2820
    16.3237  16.5140

          k = 0.0000-1.0000 0.0000 (  3812 PWs)   bands (ev):

   -15.6149 -15.6149 -15.5341 -15.5341 -15.4426 -15.4426 -15.3881 -15.3881
   -15.2996 -15.2996   0.4380   0.4380   6.2461   6.2461  10.0185  10.0185
    18.5718  18.5719

          k =-0.2500 0.5000 0.0000 (  3770 PWs)   bands (ev):

   -15.6099 -15.6075 -15.5671 -15.5160 -15.4890 -15.4232 -15.3755 -15.3563
   -15.3152 -15.3084  -2.1539   3.8892   6.4635   7.6662  11.5971  11.9501
    13.8850  14.7047

          k = 0.6250-0.3750 0.8750 (  3783 PWs)   bands (ev):

   -15.6210 -15.6136 -15.5466 -15.5019 -15.4771 -15.4314 -15.3910 -15.3790
   -15.3043 -15.2976  -1.3663   2.4726   5.7856   7.2011  11.6393  12.6329
    14.1148  15.3135

          k = 0.5000-0.2500 0.7500 (  3782 PWs)   bands (ev):

   -15.6259 -15.6149 -15.5373 -15.4914 -15.4785 -15.4266 -15.4065 -15.3865
   -15.3020 -15.2919  -0.8250   1.6730   5.6035   6.9926  11.5674  12.6485
    14.9508  16.0894

          k = 0.7500-0.2500 1.0000 (  3765 PWs)   bands (ev):

   -15.6185 -15.6178 -15.5493 -15.4842 -15.4718 -15.4459 -15.4046 -15.3711
   -15.2993 -15.2990  -1.0065   2.1648   5.8306   6.4273  11.1275  11.7625
    14.7660  17.0307

          k = 0.6250-0.1250 0.8750 (  3781 PWs)   bands (ev):

   -15.6291 -15.6203 -15.5251 -15.4737 -15.4664 -15.4427 -15.4249 -15.3942
   -15.2958 -15.2876  -0.2510   1.2771   5.2135   6.2403  11.5224  13.4046
    14.2959  16.2187

          k = 0.5000 0.0000 0.7500 (  3780 PWs)   bands (ev):

   -15.6295 -15.6197 -15.5257 -15.4800 -15.4553 -15.4515 -15.4207 -15.3938
   -15.2965 -15.2878  -0.5698   1.6317   5.0670   6.5910  11.8718  13.7104
    14.1753  15.9137

          k =-0.2500-1.0000 0.0000 (  3794 PWs)   bands (ev):

   -15.6221 -15.6221 -15.5163 -15.5163 -15.4442 -15.4442 -15.4034 -15.4034
   -15.2934 -15.2934   0.4824   0.4824   5.7960   5.7960  11.1806  11.1806
    16.7277  16.7277

          k =-0.5000-1.0000 0.0000 (  3736 PWs)   bands (ev):

   -15.6278 -15.6278 -15.4945 -15.4945 -15.4495 -15.4495 -15.4193 -15.4193
   -15.2884 -15.2884   0.5291   0.5291   5.4437   5.4437  13.4782  13.4782
    13.9416  13.9416

     the Fermi energy is     9.2428 ev

!    total energy              =    -357.28411764 Ry
     estimated scf accuracy    <       0.00000095 Ry
     smearing contrib. (-TS)   =      -0.00006180 Ry
     internal energy E=F+TS    =    -357.28405584 Ry

     The total energy is F=E-TS. E is the sum of the following terms:
     one-electron contribution =    -185.55308231 Ry
     hartree contribution      =     111.60404633 Ry
     xc contribution           =     -87.29576726 Ry
     ewald contribution        =    -196.03925259 Ry

     convergence has been achieved in   5 iterations

     Forces acting on atoms (cartesian axes, Ry/au):

     atom    1 type  1   force =     0.00000000    0.00000000    0.00000000
     atom    2 type  1   force =    -0.00000000   -0.00000000   -0.00000000
     The non-local contrib.  to forces
     atom    1 type  1   force =     0.00000000    0.00000000    0.00000000
     atom    2 type  1   force =    -0.00000000   -0.00000000   -0.00000000
     The ionic contribution  to forces
     atom    1 type  1   force =    -0.00000000   -0.00000000    0.00000000
     atom    2 type  1   force =     0.00000000    0.00000000   -0.00000000
     The local contribution  to forces
     atom    1 type  1   force =    -0.00000000   -0.00000000   -0.00000000
     atom    2 type  1   force =     0.00000000    0.00000000    0.00000000
     The core correction contribution to forces
     atom    1 type  1   force =     0.00000000   -0.00000000   -0.00000000
     atom    2 type  1   force =     0.00000000    0.00000000   -0.00000000
     The Hubbard contrib.    to forces
     atom    1 type  1   force =     0.00000000    0.00000000    0.00000000
     atom    2 type  1   force =     0.00000000    0.00000000    0.00000000
     The SCF correction term to forces
     atom    1 type  1   force =    -0.00000000   -0.00000000   -0.00000000
     atom    2 type  1   force =     0.00000000   -0.00000000   -0.00000000

     Total force =     0.000000     Total SCF correction =     0.000000


     Computing stress (Cartesian axis) and pressure

          total   stress  (Ry/bohr**3)                   (kbar)     P=       17.51
   0.00011904   0.00000000   0.00000000           17.51        0.00        0.00
   0.00000000   0.00011904  -0.00000000            0.00       17.51       -0.00
   0.00000000  -0.00000000   0.00011904            0.00       -0.00       17.51


     Writing all to output data dir ./Ge_out/Ge_scf.save/

     init_run     :      1.62s CPU      1.72s WALL (       1 calls)
     electrons    :     20.96s CPU     22.06s WALL (       1 calls)
     forces       :      0.22s CPU      0.24s WALL (       1 calls)
     stress       :      2.05s CPU      2.07s WALL (       1 calls)

     Called by init_run:
     wfcinit      :      1.15s CPU      1.22s WALL (       1 calls)
     potinit      :      0.05s CPU      0.06s WALL (       1 calls)
     hinit0       :      0.34s CPU      0.35s WALL (       1 calls)

     Called by electrons:
     c_bands      :     17.65s CPU     18.53s WALL (       6 calls)
     sum_band     :      3.13s CPU      3.31s WALL (       6 calls)
     v_of_rho     :      0.19s CPU      0.21s WALL (       6 calls)
     mix_rho      :      0.02s CPU      0.02s WALL (       6 calls)

     Called by c_bands:
     init_us_2    :      0.30s CPU      0.33s WALL (     435 calls)
     init_us_2:cp :      0.30s CPU      0.33s WALL (     435 calls)
     cegterg      :     16.78s CPU     17.54s WALL (     174 calls)

     Called by *egterg:
     cdiaghg      :      0.52s CPU      0.53s WALL (     581 calls)
     h_psi        :     15.70s CPU     16.47s WALL (     639 calls)
     g_psi        :      0.08s CPU      0.08s WALL (     436 calls)

     Called by h_psi:
     h_psi:calbec :      0.44s CPU      0.46s WALL (     639 calls)
     vloc_psi     :     14.77s CPU     15.50s WALL (     639 calls)
     add_vuspsi   :      0.43s CPU      0.44s WALL (     639 calls)

     General routines
     calbec       :      0.56s CPU      0.59s WALL (     784 calls)
     fft          :      0.36s CPU      0.38s WALL (      85 calls)
     ffts         :      0.01s CPU      0.01s WALL (       6 calls)
     fftw         :     15.77s CPU     16.56s WALL (   19550 calls)

     Parallel routines

     PWSCF        :     25.01s CPU     26.74s WALL


   This run was terminated on:  16:20:46  26Apr2025            

=------------------------------------------------------------------------------=
   JOB DONE.
=------------------------------------------------------------------------------=
