
     Program PWSCF v.7.2 starts on 26Apr2025 at 16:26:32 

     This program is part of the open-source Quantum ESPRESSO suite
     for quantum simulation of materials; please cite
         "P. Giannozzi et al., J. Phys.:Condens. Matter 21 395502 (2009);
         "P. Giannozzi et al., J. Phys.:Condens. Matter 29 465901 (2017);
         "P. Giannozzi et al., J. Chem. Phys. 152 154105 (2020);
          URL http://www.quantum-espresso.org", 
     in publications or presentations arising from this work. More details at
     http://www.quantum-espresso.org/quote

     Parallel version (MPI), running on     4 processors

     MPI processes distributed on     1 nodes
     200842 MiB available memory on the printing compute node when the environment starts

     Waiting for input...
     Reading input from standard input
Warning: card &CELL ignored
Warning: card / ignored

     Current dimensions of program PWSCF are:
     Max number of different atomic species (ntypx) = 10
     Max number of k-points (npk) =  40000
     Max angular momentum in pseudopotentials (lmaxx) =  4

     R & G space division:  proc/nbgrp/npool/nimage =       4
     Subspace diagonalization in iterative solution of the eigenvalue problem:
     a serial algorithm will be used


     Parallelization info
     --------------------
     sticks:   dense  smooth     PW     G-vecs:    dense   smooth      PW
     Min         388     388    112                10203    10203    1593
     Max         389     389    113                10207    10207    1594
     Sum        1555    1555    451                40821    40821    6375

     Using Slab Decomposition



     bravais-lattice index     =            2
     lattice parameter (alat)  =      11.9053  a.u.
     unit-cell volume          =     421.8502 (a.u.)^3
     number of atoms/cell      =            2
     number of atomic types    =            1
     number of electrons       =        28.00
     number of Kohn-Sham states=           18
     kinetic-energy cutoff     =      80.0000  Ry
     charge density cutoff     =     320.0000  Ry
     scf convergence threshold =      1.0E-06
     mixing beta               =       0.4000
     number of iterations used =            8  plain     mixing
     Exchange-correlation= PBE
                           (   1   4   3   4   0   0   0)

     celldm(1)=  11.905275  celldm(2)=   0.000000  celldm(3)=   0.000000
     celldm(4)=   0.000000  celldm(5)=   0.000000  celldm(6)=   0.000000

     crystal axes: (cart. coord. in units of alat)
               a(1) = (  -0.500000   0.000000   0.500000 )  
               a(2) = (   0.000000   0.500000   0.500000 )  
               a(3) = (  -0.500000   0.500000   0.000000 )  

     reciprocal axes: (cart. coord. in units 2 pi/alat)
               b(1) = ( -1.000000 -1.000000  1.000000 )  
               b(2) = (  1.000000  1.000000  1.000000 )  
               b(3) = ( -1.000000  1.000000 -1.000000 )  


     PseudoPot. # 1 for Ge read from file:
     ./Ge.upf
     MD5 check sum: 087fa14d6c89b52166990835c3b338da
     Pseudo is Norm-conserving + core correction, Zval = 14.0
     Generated using ONCVPSP code by D. R. Hamann
     Using radial grid of 1560 points,  6 beta functions with: 
                l(1) =   0
                l(2) =   0
                l(3) =   1
                l(4) =   1
                l(5) =   2
                l(6) =   2

     atomic species   valence    mass     pseudopotential
        Ge            14.00    72.63000     Ge( 1.00)

     48 Sym. Ops., with inversion, found (24 have fractional translation)



   Cartesian axes

     site n.     atom                  positions (alat units)
         1           Ge  tau(   1) = (   0.0000000   0.0000000   0.0000000  )
         2           Ge  tau(   2) = (   0.2500000   0.2500000   0.2500000  )

     number of k points=    29  Gaussian smearing, width (Ry)=  0.0100
                       cart. coord. in units 2pi/alat
        k(    1) = (   0.0000000   0.0000000   0.0000000), wk =   0.0039062
        k(    2) = (  -0.1250000   0.1250000  -0.1250000), wk =   0.0312500
        k(    3) = (  -0.2500000   0.2500000  -0.2500000), wk =   0.0312500
        k(    4) = (  -0.3750000   0.3750000  -0.3750000), wk =   0.0312500
        k(    5) = (   0.5000000  -0.5000000   0.5000000), wk =   0.0156250
        k(    6) = (   0.0000000   0.2500000   0.0000000), wk =   0.0234375
        k(    7) = (  -0.1250000   0.3750000  -0.1250000), wk =   0.0937500
        k(    8) = (  -0.2500000   0.5000000  -0.2500000), wk =   0.0937500
        k(    9) = (   0.6250000  -0.3750000   0.6250000), wk =   0.0937500
        k(   10) = (   0.5000000  -0.2500000   0.5000000), wk =   0.0937500
        k(   11) = (   0.3750000  -0.1250000   0.3750000), wk =   0.0937500
        k(   12) = (   0.2500000   0.0000000   0.2500000), wk =   0.0468750
        k(   13) = (   0.0000000   0.5000000   0.0000000), wk =   0.0234375
        k(   14) = (  -0.1250000   0.6250000  -0.1250000), wk =   0.0937500
        k(   15) = (   0.7500000  -0.2500000   0.7500000), wk =   0.0937500
        k(   16) = (   0.6250000  -0.1250000   0.6250000), wk =   0.0937500
        k(   17) = (   0.5000000   0.0000000   0.5000000), wk =   0.0468750
        k(   18) = (   0.0000000   0.7500000   0.0000000), wk =   0.0234375
        k(   19) = (   0.8750000  -0.1250000   0.8750000), wk =   0.0937500
        k(   20) = (   0.7500000   0.0000000   0.7500000), wk =   0.0468750
        k(   21) = (   0.0000000  -1.0000000   0.0000000), wk =   0.0117188
        k(   22) = (  -0.2500000   0.5000000   0.0000000), wk =   0.0937500
        k(   23) = (   0.6250000  -0.3750000   0.8750000), wk =   0.1875000
        k(   24) = (   0.5000000  -0.2500000   0.7500000), wk =   0.0937500
        k(   25) = (   0.7500000  -0.2500000   1.0000000), wk =   0.0937500
        k(   26) = (   0.6250000  -0.1250000   0.8750000), wk =   0.1875000
        k(   27) = (   0.5000000   0.0000000   0.7500000), wk =   0.0937500
        k(   28) = (  -0.2500000  -1.0000000   0.0000000), wk =   0.0468750
        k(   29) = (  -0.5000000  -1.0000000   0.0000000), wk =   0.0234375

     Dense  grid:    40821 G-vectors     FFT dimensions: (  48,  48,  48)

     Estimated max dynamical RAM per process >      20.24 MB

     Estimated total dynamical RAM >      80.98 MB

     Initial potential from superposition of free atoms

     starting charge      27.9984, renormalised to      28.0000
     Starting wfcs are   18 randomized atomic wfcs

     total cpu time spent up to now is        2.1 secs

     Self-consistent Calculation

     iteration #  1     ecut=    80.00 Ry     beta= 0.40
     Davidson diagonalization with overlap
     ethr =  1.00E-02,  avg # of iterations =  3.2

     Threshold (ethr) on eigenvalues was too large:
     Diagonalizing with lowered threshold

     Davidson diagonalization with overlap
     ethr =  5.93E-05,  avg # of iterations =  4.2

     total cpu time spent up to now is       11.4 secs

     total energy              =    -357.24952003 Ry
     estimated scf accuracy    <       0.01862561 Ry

     iteration #  2     ecut=    80.00 Ry     beta= 0.40
     Davidson diagonalization with overlap
     ethr =  6.65E-05,  avg # of iterations =  1.0

     total cpu time spent up to now is       14.7 secs

     total energy              =    -357.24927528 Ry
     estimated scf accuracy    <       0.00617737 Ry

     iteration #  3     ecut=    80.00 Ry     beta= 0.40
     Davidson diagonalization with overlap
     ethr =  2.21E-05,  avg # of iterations =  1.0

     total cpu time spent up to now is       18.1 secs

     total energy              =    -357.24950311 Ry
     estimated scf accuracy    <       0.00006872 Ry

     iteration #  4     ecut=    80.00 Ry     beta= 0.40
     Davidson diagonalization with overlap
     ethr =  2.45E-07,  avg # of iterations =  2.2

     total cpu time spent up to now is       22.6 secs

     total energy              =    -357.24952111 Ry
     estimated scf accuracy    <       0.00000542 Ry

     iteration #  5     ecut=    80.00 Ry     beta= 0.40
     Davidson diagonalization with overlap
     ethr =  1.94E-08,  avg # of iterations =  2.1

     total cpu time spent up to now is       26.9 secs

     total energy              =    -357.24952154 Ry
     estimated scf accuracy    <       0.00000123 Ry

     iteration #  6     ecut=    80.00 Ry     beta= 0.40
     Davidson diagonalization with overlap
     ethr =  4.38E-09,  avg # of iterations =  2.0

     total cpu time spent up to now is       30.5 secs

     End of self-consistent calculation

          k = 0.0000 0.0000 0.0000 (  5029 PWs)   bands (ev):

   -18.9661 -18.9661 -18.9661 -18.9514 -18.9514 -18.8652 -18.8652 -18.8609
   -18.8609 -18.8609  -5.0797   3.0910   5.6403   5.6403   5.6403   7.9833
     7.9833   7.9833

          k =-0.1250 0.1250-0.1250 (  5065 PWs)   bands (ev):

   -18.9693 -18.9693 -18.9649 -18.9471 -18.9471 -18.8712 -18.8712 -18.8622
   -18.8556 -18.8556  -4.9426   2.3147   5.4231   5.4231   5.7301   8.2890
     8.2890   8.3876

          k =-0.2500 0.2500-0.2500 (  5087 PWs)   bands (ev):

   -18.9736 -18.9736 -18.9619 -18.9402 -18.9402 -18.8780 -18.8780 -18.8653
   -18.8505 -18.8505  -4.5508   0.9118   5.0407   5.0407   5.4843   8.7996
     8.7996   9.7059

          k =-0.3750 0.3750-0.3750 (  5081 PWs)   bands (ev):

   -18.9760 -18.9760 -18.9588 -18.9356 -18.9356 -18.8822 -18.8822 -18.8686
   -18.8475 -18.8475  -4.0015  -0.3596   4.7577   4.7577   5.1889   9.0494
     9.0494  11.4278

          k = 0.5000-0.5000 0.5000 (  5120 PWs)   bands (ev):

   -18.9767 -18.9767 -18.9574 -18.9342 -18.9342 -18.8835 -18.8835 -18.8700
   -18.8466 -18.8466  -3.6665  -0.9489   4.6575   4.6575   5.0764   9.0885
     9.0885  12.2402

          k = 0.0000 0.2500 0.0000 (  5065 PWs)   bands (ev):

   -18.9686 -18.9686 -18.9684 -18.9480 -18.9423 -18.8784 -18.8684 -18.8576
   -18.8576 -18.8554  -4.8958   2.1581   5.0800   5.0800   6.4938   7.5027
     8.7791   8.7791

          k =-0.1250 0.3750-0.1250 (  5084 PWs)   bands (ev):

   -18.9745 -18.9722 -18.9641 -18.9425 -18.9344 -18.8867 -18.8742 -18.8611
   -18.8528 -18.8496  -4.5839   1.1109   4.5490   4.6839   6.7001   7.7071
     9.4056   9.6147

          k =-0.2500 0.5000-0.2500 (  5079 PWs)   bands (ev):

   -18.9792 -18.9755 -18.9575 -18.9363 -18.9293 -18.8911 -18.8806 -18.8681
   -18.8483 -18.8444  -4.0654  -0.1165   3.9887   4.4466   6.4579   8.4696
     9.6780  10.4579

          k = 0.6250-0.3750 0.6250 (  5099 PWs)   bands (ev):

   -18.9813 -18.9776 -18.9521 -18.9314 -18.9297 -18.8893 -18.8858 -18.8744
   -18.8455 -18.8420  -3.5837  -0.9629   3.6419   4.4295   6.2606   8.8885
     9.5821  11.5919

          k = 0.5000-0.2500 0.5000 (  5093 PWs)   bands (ev):

   -18.9804 -18.9783 -18.9516 -18.9339 -18.9294 -18.8885 -18.8836 -18.8758
   -18.8448 -18.8431  -3.7115  -0.7575   3.5804   4.6296   6.2266   9.0928
     9.3385  11.4519

          k = 0.3750-0.1250 0.3750 (  5092 PWs)   bands (ev):

   -18.9771 -18.9768 -18.9567 -18.9389 -18.9325 -18.8862 -18.8794 -18.8695
   -18.8476 -18.8463  -4.2582   0.2833   3.8476   4.9929   6.3153   8.9320
     9.0019  10.1750

          k = 0.2500 0.0000 0.2500 (  5084 PWs)   bands (ev):

   -18.9737 -18.9714 -18.9630 -18.9441 -18.9398 -18.8793 -18.8746 -18.8623
   -18.8543 -18.8502  -4.7184   1.4860   4.5003   5.3660   6.2287   8.3810
     8.4116   9.3996

          k = 0.0000 0.5000 0.0000 (  5073 PWs)   bands (ev):

   -18.9742 -18.9742 -18.9667 -18.9384 -18.9241 -18.8986 -18.8775 -18.8567
   -18.8503 -18.8503  -4.3521   0.6144   4.2660   4.2660   6.8278   7.3678
    10.2712  10.2712

          k =-0.1250 0.6250-0.1250 (  5088 PWs)   bands (ev):

   -18.9798 -18.9772 -18.9589 -18.9315 -18.9159 -18.9070 -18.8843 -18.8651
   -18.8463 -18.8436  -3.8866  -0.2942   3.6848   4.0104   6.9280   7.6268
    10.4703  10.8092

          k = 0.7500-0.2500 0.7500 (  5107 PWs)   bands (ev):

   -18.9849 -18.9794 -18.9486 -18.9246 -18.9153 -18.9068 -18.8917 -18.8759
   -18.8434 -18.8381  -3.3292  -1.1480   3.0616   3.9906   6.8716   8.7570
    10.4273  10.7625

          k = 0.6250-0.1250 0.6250 (  5096 PWs)   bands (ev):

   -18.9863 -18.9805 -18.9435 -18.9227 -18.9203 -18.8980 -18.8968 -18.8815
   -18.8422 -18.8368  -3.2364  -1.2707   2.7835   4.2083   6.8700   9.5539
    10.3468  10.8932

          k = 0.5000 0.0000 0.5000 (  5090 PWs)   bands (ev):

   -18.9831 -18.9798 -18.9467 -18.9335 -18.9238 -18.8942 -18.8840 -18.8807
   -18.8432 -18.8405  -3.7535  -0.5441   3.0114   4.6026   6.8500   9.6204
     9.6497  10.0770

          k = 0.0000 0.7500 0.0000 (  5093 PWs)   bands (ev):

   -18.9793 -18.9793 -18.9576 -18.9242 -18.9209 -18.9031 -18.8912 -18.8664
   -18.8435 -18.8435  -3.4744  -0.9181   3.7102   3.7102   6.4985   7.1131
    11.8266  11.8266

          k = 0.8750-0.1250 0.8750 (  5097 PWs)   bands (ev):

   -18.9834 -18.9808 -18.9470 -18.9276 -18.9162 -18.8993 -18.8962 -18.8771
   -18.8415 -18.8391  -2.8968  -1.6547   3.2211   3.6437   6.7016   7.4267
    11.6982  12.0708

          k = 0.7500 0.0000 0.7500 (  5108 PWs)   bands (ev):

   -18.9872 -18.9813 -18.9413 -18.9182 -18.9119 -18.9044 -18.9042 -18.8830
   -18.8410 -18.8355  -2.7002  -1.8605   2.7200   3.8260   6.8046   8.9275
    11.1269  11.4638

          k = 0.0000-1.0000 0.0000 (  5104 PWs)   bands (ev):

   -18.9812 -18.9812 -18.9416 -18.9416 -18.9076 -18.9076 -18.8828 -18.8828
   -18.8408 -18.8408  -2.3080  -2.3080   3.5175   3.5175   6.6224   6.6224
    12.6996  12.6997

          k =-0.2500 0.5000 0.0000 (  5095 PWs)   bands (ev):

   -18.9777 -18.9773 -18.9582 -18.9373 -18.9260 -18.8953 -18.8794 -18.8667
   -18.8469 -18.8459  -4.1975   0.2451   3.7122   4.5194   7.1598   7.7861
     9.9201  10.0634

          k = 0.6250-0.3750 0.8750 (  5105 PWs)   bands (ev):

   -18.9830 -18.9798 -18.9488 -18.9310 -18.9209 -18.8995 -18.8860 -18.8765
   -18.8434 -18.8404  -3.6440  -0.7235   3.1752   4.2121   7.1547   8.5780
     9.9921  10.6376

          k = 0.5000-0.2500 0.7500 (  5114 PWs)   bands (ev):

   -18.9851 -18.9805 -18.9445 -18.9263 -18.9214 -18.8979 -18.8918 -18.8807
   -18.8424 -18.8380  -3.2879  -1.2410   3.0052   4.0757   7.0982   8.8557
    10.3182  11.0913

          k = 0.7500-0.2500 1.0000 (  5113 PWs)   bands (ev):

   -18.9823 -18.9816 -18.9495 -18.9243 -18.9155 -18.9075 -18.8918 -18.8745
   -18.8412 -18.8406  -3.3677  -1.0566   3.2554   3.6840   7.4220   7.6075
    10.3589  11.6686

          k = 0.6250-0.1250 0.8750 (  5103 PWs)   bands (ev):

   -18.9865 -18.9828 -18.9388 -18.9181 -18.9154 -18.9060 -18.8996 -18.8849
   -18.8397 -18.8363  -2.8502  -1.6855   2.8367   3.5574   7.5266   8.8488
    10.1627  11.1907

          k = 0.5000 0.0000 0.7500 (  5114 PWs)   bands (ev):

   -18.9867 -18.9824 -18.9394 -18.9217 -18.9121 -18.9080 -18.8969 -18.8847
   -18.8403 -18.8363  -3.0816  -1.4161   2.7368   3.7985   7.5764   9.2458
     9.9823  10.9336

          k =-0.2500-1.0000 0.0000 (  5090 PWs)   bands (ev):

   -18.9838 -18.9838 -18.9346 -18.9346 -18.9079 -18.9079 -18.8891 -18.8891
   -18.8386 -18.8386  -2.2918  -2.2918   3.2399   3.2399   7.4193   7.4193
    11.5928  11.5928

          k =-0.5000-1.0000 0.0000 (  5092 PWs)   bands (ev):

   -18.9860 -18.9860 -18.9259 -18.9259 -18.9092 -18.9092 -18.8962 -18.8962
   -18.8367 -18.8367  -2.2753  -2.2753   3.0174   3.0174   8.6969   8.6969
    10.0520  10.0520

     the Fermi energy is     5.4176 ev

!    total energy              =    -357.24952161 Ry
     estimated scf accuracy    <       0.00000007 Ry
     smearing contrib. (-TS)   =      -0.00036826 Ry
     internal energy E=F+TS    =    -357.24915334 Ry

     The total energy is F=E-TS. E is the sum of the following terms:
     one-electron contribution =    -216.27633624 Ry
     hartree contribution      =     123.42723318 Ry
     xc contribution           =     -87.03120271 Ry
     ewald contribution        =    -177.36884758 Ry

     convergence has been achieved in   6 iterations

     Forces acting on atoms (cartesian axes, Ry/au):

     atom    1 type  1   force =     0.00000000    0.00000000    0.00000000
     atom    2 type  1   force =     0.00000000    0.00000000    0.00000000
     The non-local contrib.  to forces
     atom    1 type  1   force =     0.00000000    0.00000000    0.00000000
     atom    2 type  1   force =     0.00000000    0.00000000    0.00000000
     The ionic contribution  to forces
     atom    1 type  1   force =     0.00000000   -0.00000000   -0.00000000
     atom    2 type  1   force =    -0.00000000    0.00000000    0.00000000
     The local contribution  to forces
     atom    1 type  1   force =    -0.00000000    0.00000000   -0.00000000
     atom    2 type  1   force =     0.00000000   -0.00000000    0.00000000
     The core correction contribution to forces
     atom    1 type  1   force =    -0.00000000    0.00000000    0.00000000
     atom    2 type  1   force =     0.00000000   -0.00000000   -0.00000000
     The Hubbard contrib.    to forces
     atom    1 type  1   force =     0.00000000    0.00000000    0.00000000
     atom    2 type  1   force =     0.00000000    0.00000000    0.00000000
     The SCF correction term to forces
     atom    1 type  1   force =     0.00000000   -0.00000000   -0.00000000
     atom    2 type  1   force =     0.00000000    0.00000000    0.00000000

     Total force =     0.000000     Total SCF correction =     0.000000


     Computing stress (Cartesian axis) and pressure

          total   stress  (Ry/bohr**3)                   (kbar)     P=      -80.83
  -0.00054947   0.00000000   0.00000000          -80.83        0.00        0.00
  -0.00000000  -0.00054947   0.00000000           -0.00      -80.83        0.00
   0.00000000   0.00000000  -0.00054947            0.00        0.00      -80.83


     Writing all to output data dir ./Ge_out/Ge_scf.save/

     init_run     :      1.77s CPU      1.87s WALL (       1 calls)
     electrons    :     26.72s CPU     28.42s WALL (       1 calls)
     forces       :      0.29s CPU      0.30s WALL (       1 calls)
     stress       :      2.79s CPU      2.83s WALL (       1 calls)

     Called by init_run:
     wfcinit      :      1.26s CPU      1.33s WALL (       1 calls)
     potinit      :      0.05s CPU      0.06s WALL (       1 calls)
     hinit0       :      0.33s CPU      0.34s WALL (       1 calls)

     Called by electrons:
     c_bands      :     22.53s CPU     23.95s WALL (       7 calls)
     sum_band     :      3.95s CPU      4.18s WALL (       7 calls)
     v_of_rho     :      0.23s CPU      0.25s WALL (       7 calls)
     mix_rho      :      0.03s CPU      0.04s WALL (       7 calls)

     Called by c_bands:
     init_us_2    :      0.49s CPU      0.51s WALL (     493 calls)
     init_us_2:cp :      0.49s CPU      0.51s WALL (     493 calls)
     cegterg      :     21.15s CPU     22.35s WALL (     203 calls)

     Called by *egterg:
     cdiaghg      :      0.58s CPU      0.60s WALL (     631 calls)
     h_psi        :     19.17s CPU     20.37s WALL (     689 calls)
     g_psi        :      0.12s CPU      0.12s WALL (     457 calls)

     Called by h_psi:
     h_psi:calbec :      0.70s CPU      0.74s WALL (     689 calls)
     vloc_psi     :     17.70s CPU     18.84s WALL (     689 calls)
     add_vuspsi   :      0.67s CPU      0.68s WALL (     689 calls)

     General routines
     calbec       :      0.87s CPU      0.92s WALL (     834 calls)
     fft          :      0.38s CPU      0.41s WALL (      95 calls)
     ffts         :      0.01s CPU      0.01s WALL (       7 calls)
     fftw         :     18.83s CPU     20.01s WALL (   22856 calls)

     Parallel routines

     PWSCF        :     31.76s CPU     34.19s WALL


   This run was terminated on:  16:27: 7  26Apr2025            

=------------------------------------------------------------------------------=
   JOB DONE.
=------------------------------------------------------------------------------=
