
     Program PWSCF v.7.2 starts on 26Apr2025 at 16:21:14 

     This program is part of the open-source Quantum ESPRESSO suite
     for quantum simulation of materials; please cite
         "P. Giannozzi et al., J. Phys.:Condens. Matter 21 395502 (2009);
         "P. Giannozzi et al., J. Phys.:Condens. Matter 29 465901 (2017);
         "P. Giannozzi et al., J. Chem. Phys. 152 154105 (2020);
          URL http://www.quantum-espresso.org", 
     in publications or presentations arising from this work. More details at
     http://www.quantum-espresso.org/quote

     Parallel version (MPI), running on     4 processors

     MPI processes distributed on     1 nodes
     200850 MiB available memory on the printing compute node when the environment starts

     Waiting for input...
     Reading input from standard input
Warning: card &CELL ignored
Warning: card / ignored

     Current dimensions of program PWSCF are:
     Max number of different atomic species (ntypx) = 10
     Max number of k-points (npk) =  40000
     Max angular momentum in pseudopotentials (lmaxx) =  4

     R & G space division:  proc/nbgrp/npool/nimage =       4
     Subspace diagonalization in iterative solution of the eigenvalue problem:
     a serial algorithm will be used


     Parallelization info
     --------------------
     sticks:   dense  smooth     PW     G-vecs:    dense   smooth      PW
     Min         321     321     94                 7705     7705    1227
     Max         322     322     95                 7710     7710    1228
     Sum        1285    1285    379                30827    30827    4909

     Using Slab Decomposition



     bravais-lattice index     =            2
     lattice parameter (alat)  =      10.8470  a.u.
     unit-cell volume          =     319.0599 (a.u.)^3
     number of atoms/cell      =            2
     number of atomic types    =            1
     number of electrons       =        28.00
     number of Kohn-Sham states=           18
     kinetic-energy cutoff     =      80.0000  Ry
     charge density cutoff     =     320.0000  Ry
     scf convergence threshold =      1.0E-06
     mixing beta               =       0.4000
     number of iterations used =            8  plain     mixing
     Exchange-correlation= PBE
                           (   1   4   3   4   0   0   0)

     celldm(1)=  10.847028  celldm(2)=   0.000000  celldm(3)=   0.000000
     celldm(4)=   0.000000  celldm(5)=   0.000000  celldm(6)=   0.000000

     crystal axes: (cart. coord. in units of alat)
               a(1) = (  -0.500000   0.000000   0.500000 )  
               a(2) = (   0.000000   0.500000   0.500000 )  
               a(3) = (  -0.500000   0.500000   0.000000 )  

     reciprocal axes: (cart. coord. in units 2 pi/alat)
               b(1) = ( -1.000000 -1.000000  1.000000 )  
               b(2) = (  1.000000  1.000000  1.000000 )  
               b(3) = ( -1.000000  1.000000 -1.000000 )  


     PseudoPot. # 1 for Ge read from file:
     ./Ge.upf
     MD5 check sum: 087fa14d6c89b52166990835c3b338da
     Pseudo is Norm-conserving + core correction, Zval = 14.0
     Generated using ONCVPSP code by D. R. Hamann
     Using radial grid of 1560 points,  6 beta functions with: 
                l(1) =   0
                l(2) =   0
                l(3) =   1
                l(4) =   1
                l(5) =   2
                l(6) =   2

     atomic species   valence    mass     pseudopotential
        Ge            14.00    72.63000     Ge( 1.00)

     48 Sym. Ops., with inversion, found (24 have fractional translation)



   Cartesian axes

     site n.     atom                  positions (alat units)
         1           Ge  tau(   1) = (   0.0000000   0.0000000   0.0000000  )
         2           Ge  tau(   2) = (   0.2500000   0.2500000   0.2500000  )

     number of k points=    29  Gaussian smearing, width (Ry)=  0.0100
                       cart. coord. in units 2pi/alat
        k(    1) = (   0.0000000   0.0000000   0.0000000), wk =   0.0039062
        k(    2) = (  -0.1250000   0.1250000  -0.1250000), wk =   0.0312500
        k(    3) = (  -0.2500000   0.2500000  -0.2500000), wk =   0.0312500
        k(    4) = (  -0.3750000   0.3750000  -0.3750000), wk =   0.0312500
        k(    5) = (   0.5000000  -0.5000000   0.5000000), wk =   0.0156250
        k(    6) = (   0.0000000   0.2500000   0.0000000), wk =   0.0234375
        k(    7) = (  -0.1250000   0.3750000  -0.1250000), wk =   0.0937500
        k(    8) = (  -0.2500000   0.5000000  -0.2500000), wk =   0.0937500
        k(    9) = (   0.6250000  -0.3750000   0.6250000), wk =   0.0937500
        k(   10) = (   0.5000000  -0.2500000   0.5000000), wk =   0.0937500
        k(   11) = (   0.3750000  -0.1250000   0.3750000), wk =   0.0937500
        k(   12) = (   0.2500000   0.0000000   0.2500000), wk =   0.0468750
        k(   13) = (   0.0000000   0.5000000   0.0000000), wk =   0.0234375
        k(   14) = (  -0.1250000   0.6250000  -0.1250000), wk =   0.0937500
        k(   15) = (   0.7500000  -0.2500000   0.7500000), wk =   0.0937500
        k(   16) = (   0.6250000  -0.1250000   0.6250000), wk =   0.0937500
        k(   17) = (   0.5000000   0.0000000   0.5000000), wk =   0.0468750
        k(   18) = (   0.0000000   0.7500000   0.0000000), wk =   0.0234375
        k(   19) = (   0.8750000  -0.1250000   0.8750000), wk =   0.0937500
        k(   20) = (   0.7500000   0.0000000   0.7500000), wk =   0.0468750
        k(   21) = (   0.0000000  -1.0000000   0.0000000), wk =   0.0117188
        k(   22) = (  -0.2500000   0.5000000   0.0000000), wk =   0.0937500
        k(   23) = (   0.6250000  -0.3750000   0.8750000), wk =   0.1875000
        k(   24) = (   0.5000000  -0.2500000   0.7500000), wk =   0.0937500
        k(   25) = (   0.7500000  -0.2500000   1.0000000), wk =   0.0937500
        k(   26) = (   0.6250000  -0.1250000   0.8750000), wk =   0.1875000
        k(   27) = (   0.5000000   0.0000000   0.7500000), wk =   0.0937500
        k(   28) = (  -0.2500000  -1.0000000   0.0000000), wk =   0.0468750
        k(   29) = (  -0.5000000  -1.0000000   0.0000000), wk =   0.0234375

     Dense  grid:    30827 G-vectors     FFT dimensions: (  48,  48,  48)

     Estimated max dynamical RAM per process >      16.13 MB

     Estimated total dynamical RAM >      64.52 MB

     Initial potential from superposition of free atoms

     starting charge      27.9984, renormalised to      28.0000
     Starting wfcs are   18 randomized atomic wfcs

     total cpu time spent up to now is        1.9 secs

     Self-consistent Calculation

     iteration #  1     ecut=    80.00 Ry     beta= 0.40
     Davidson diagonalization with overlap
     ethr =  1.00E-02,  avg # of iterations =  3.9

     Threshold (ethr) on eigenvalues was too large:
     Diagonalizing with lowered threshold

     Davidson diagonalization with overlap
     ethr =  1.06E-04,  avg # of iterations =  3.8

     total cpu time spent up to now is       10.4 secs

     total energy              =    -357.28545714 Ry
     estimated scf accuracy    <       0.03187993 Ry

     iteration #  2     ecut=    80.00 Ry     beta= 0.40
     Davidson diagonalization with overlap
     ethr =  1.14E-04,  avg # of iterations =  1.0

     total cpu time spent up to now is       13.5 secs

     total energy              =    -357.28424899 Ry
     estimated scf accuracy    <       0.00985987 Ry

     iteration #  3     ecut=    80.00 Ry     beta= 0.40
     Davidson diagonalization with overlap
     ethr =  3.52E-05,  avg # of iterations =  1.2

     total cpu time spent up to now is       16.5 secs

     total energy              =    -357.28475376 Ry
     estimated scf accuracy    <       0.00011290 Ry

     iteration #  4     ecut=    80.00 Ry     beta= 0.40
     Davidson diagonalization with overlap
     ethr =  4.03E-07,  avg # of iterations =  3.2

     total cpu time spent up to now is       20.8 secs

     total energy              =    -357.28477697 Ry
     estimated scf accuracy    <       0.00000910 Ry

     iteration #  5     ecut=    80.00 Ry     beta= 0.40
     Davidson diagonalization with overlap
     ethr =  3.25E-08,  avg # of iterations =  1.7

     total cpu time spent up to now is       24.0 secs

     End of self-consistent calculation

          k = 0.0000 0.0000 0.0000 (  3839 PWs)   bands (ev):

   -15.8431 -15.8431 -15.8431 -15.8119 -15.8119 -15.6227 -15.6227 -15.6227
   -15.6144 -15.6144  -3.4981   8.5953   8.9516   8.9516   8.9516  11.4854
    11.4854  11.4854

          k =-0.1250 0.1250-0.1250 (  3825 PWs)   bands (ev):

   -15.8504 -15.8504 -15.8408 -15.8018 -15.8018 -15.6349 -15.6349 -15.6253
   -15.6038 -15.6038  -3.3157   6.5277   8.6360   8.6360   9.8026  11.9111
    11.9111  12.3124

          k =-0.2500 0.2500-0.2500 (  3831 PWs)   bands (ev):

   -15.8594 -15.8594 -15.8353 -15.7866 -15.7866 -15.6478 -15.6478 -15.6317
   -15.5941 -15.5941  -2.7875   4.2827   8.1145   8.1145   9.4811  12.5267
    12.5267  14.3432

          k =-0.3750 0.3750-0.3750 (  3846 PWs)   bands (ev):

   -15.8640 -15.8640 -15.8295 -15.7772 -15.7772 -15.6548 -15.6548 -15.6382
   -15.5889 -15.5889  -2.0184   2.4223   7.7428   7.7428   9.1319  12.6927
    12.6927  16.1272

          k = 0.5000-0.5000 0.5000 (  3828 PWs)   bands (ev):

   -15.8651 -15.8651 -15.8271 -15.7745 -15.7745 -15.6565 -15.6565 -15.6410
   -15.5874 -15.5874  -1.5134   1.5456   7.6132   7.6132   9.0053  12.6690
    12.6691  16.0682

          k = 0.0000 0.2500 0.0000 (  3831 PWs)   bands (ev):

   -15.8497 -15.8482 -15.8482 -15.8040 -15.7908 -15.6543 -15.6216 -15.6151
   -15.6151 -15.6001  -3.2538   6.4519   8.1284   8.1284  10.8616  10.9436
    12.6175  12.6175

          k =-0.1250 0.3750-0.1250 (  3846 PWs)   bands (ev):

   -15.8620 -15.8556 -15.8403 -15.7916 -15.7731 -15.6725 -15.6360 -15.6185
   -15.6023 -15.5911  -2.8361   4.7662   7.4979   7.5916  10.7919  11.4387
    13.4182  13.7072

          k =-0.2500 0.5000-0.2500 (  3855 PWs)   bands (ev):

   -15.8717 -15.8625 -15.8270 -15.7780 -15.7623 -15.6805 -15.6500 -15.6328
   -15.5919 -15.5810  -2.1233   2.9162   6.8366   7.2875  10.4641  12.1937
    13.6106  14.4840

          k = 0.6250-0.3750 0.6250 (  3846 PWs)   bands (ev):

   -15.8758 -15.8670 -15.8158 -15.7677 -15.7641 -15.6739 -15.6618 -15.6467
   -15.5851 -15.5766  -1.4179   1.6524   6.3970   7.2819  10.2345  12.4650
    13.3625  16.0022

          k = 0.5000-0.2500 0.5000 (  3847 PWs)   bands (ev):

   -15.8736 -15.8692 -15.8142 -15.7738 -15.7627 -15.6696 -15.6569 -15.6533
   -15.5821 -15.5799  -1.6106   1.9627   6.2676   7.5658  10.2391  12.6998
    13.0743  16.1455

          k = 0.3750-0.1250 0.3750 (  3851 PWs)   bands (ev):

   -15.8675 -15.8656 -15.8244 -15.7841 -15.7686 -15.6670 -15.6527 -15.6348
   -15.5908 -15.5840  -2.3899   3.5048   6.5156   8.0690  10.4404  12.6686
    12.8460  14.4990

          k = 0.2500 0.0000 0.2500 (  3849 PWs)   bands (ev):

   -15.8604 -15.8541 -15.8373 -15.7953 -15.7851 -15.6532 -15.6437 -15.6171
   -15.6071 -15.5914  -3.0159   5.2913   7.3066   8.5861  10.4855  12.0348
    12.1609  13.5879

          k = 0.0000 0.5000 0.0000 (  3895 PWs)   bands (ev):

   -15.8596 -15.8596 -15.8484 -15.7818 -15.7504 -15.7008 -15.6422 -15.6020
   -15.5977 -15.5977  -2.5294   4.2179   7.0199   7.0199  10.0036  11.5830
    14.6191  14.6191

          k =-0.1250 0.6250-0.1250 (  3868 PWs)   bands (ev):

   -15.8725 -15.8656 -15.8315 -15.7663 -15.7325 -15.7190 -15.6579 -15.6222
   -15.5880 -15.5804  -1.8992   2.9243   6.2374   6.6840  10.2447  11.5806
    14.5661  15.2372

          k = 0.7500-0.2500 0.7500 (  3863 PWs)   bands (ev):

   -15.8838 -15.8706 -15.8093 -15.7510 -15.7329 -15.7160 -15.6751 -15.6460
   -15.5803 -15.5678  -1.1108   1.6841   5.4036   6.6685  10.3653  13.0289
    14.2879  15.0245

          k = 0.6250-0.1250 0.6250 (  3867 PWs)   bands (ev):

   -15.8866 -15.8735 -15.7981 -15.7487 -15.7410 -15.6966 -15.6883 -15.6580
   -15.5766 -15.5651  -0.9603   1.4869   5.0031   6.9730  10.5408  13.8230
    14.4964  15.5401

          k = 0.5000 0.0000 0.5000 (  3845 PWs)   bands (ev):

   -15.8795 -15.8729 -15.8038 -15.7725 -15.7485 -15.6845 -15.6653 -15.6565
   -15.5777 -15.5741  -1.6965   2.5034   5.2807   7.5207  10.8247  13.6435
    13.9165  14.1293

          k = 0.0000 0.7500 0.0000 (  3872 PWs)   bands (ev):

   -15.8698 -15.8698 -15.8304 -15.7510 -15.7490 -15.7040 -15.6734 -15.6230
   -15.5814 -15.5814  -1.3523   2.1144   6.2815   6.2815   9.5829  10.5380
    16.7394  16.7395

          k = 0.8750-0.1250 0.8750 (  3873 PWs)   bands (ev):

   -15.8796 -15.8730 -15.8073 -15.7651 -15.7308 -15.6921 -15.6890 -15.6472
   -15.5764 -15.5705  -0.5604   1.1119   5.5694   6.1970   9.8923  10.8972
    16.5778  17.0070

          k = 0.7500 0.0000 0.7500 (  3871 PWs)   bands (ev):

   -15.8886 -15.8746 -15.7946 -15.7426 -15.7211 -15.7083 -15.7044 -15.6600
   -15.5746 -15.5619  -0.2394   0.7954   4.8403   6.4473  10.1324  12.9480
    15.9071  16.1214

          k = 0.0000-1.0000 0.0000 (  3892 PWs)   bands (ev):

   -15.8737 -15.8737 -15.7965 -15.7965 -15.7108 -15.7108 -15.6591 -15.6591
   -15.5749 -15.5749   0.2237   0.2237   6.0273   6.0273   9.7535   9.7535
    18.1106  18.1106

          k =-0.2500 0.5000 0.0000 (  3851 PWs)   bands (ev):

   -15.8687 -15.8666 -15.8280 -15.7799 -15.7544 -15.6918 -15.6475 -15.6287
   -15.5896 -15.5835  -2.3144   3.6110   6.2428   7.4131  11.2968  11.5672
    13.5828  14.3396

          k = 0.6250-0.3750 0.8750 (  3862 PWs)   bands (ev):

   -15.8793 -15.8723 -15.8086 -15.7665 -15.7432 -15.6997 -15.6621 -15.6502
   -15.5795 -15.5731  -1.5453   2.2289   5.5742   6.9615  11.2900  12.3145
    13.7893  14.9497

          k = 0.5000-0.2500 0.7500 (  3874 PWs)   bands (ev):

   -15.8839 -15.8736 -15.7998 -15.7566 -15.7445 -15.6952 -15.6766 -15.6575
   -15.5774 -15.5678  -1.0197   1.4527   5.3917   6.7591  11.2141  12.3562
    14.5842  15.7002

          k = 0.7500-0.2500 1.0000 (  3846 PWs)   bands (ev):

   -15.8770 -15.8763 -15.8111 -15.7499 -15.7377 -15.7137 -15.6750 -15.6429
   -15.5748 -15.5744  -1.1916   1.9144   5.6241   6.2080  10.8366  11.4478
    14.4093  16.6107

          k = 0.6250-0.1250 0.8750 (  3860 PWs)   bands (ev):

   -15.8869 -15.8786 -15.7881 -15.7397 -15.7330 -15.7107 -15.6940 -15.6648
   -15.5715 -15.5637  -0.4555   1.0468   5.0232   6.0259  11.2158  13.0542
    13.9629  15.8236

          k = 0.5000 0.0000 0.7500 (  3855 PWs)   bands (ev):

   -15.8873 -15.8781 -15.7888 -15.7458 -15.7227 -15.7186 -15.6899 -15.6645
   -15.5722 -15.5639  -0.7675   1.3952   4.8805   6.3676  11.5431  13.3666
    13.8380  15.5242

          k =-0.2500-1.0000 0.0000 (  3858 PWs)   bands (ev):

   -15.8804 -15.8804 -15.7798 -15.7798 -15.7122 -15.7122 -15.6735 -15.6735
   -15.5692 -15.5692   0.2654   0.2654   5.5916   5.5916  10.8887  10.8887
    16.3244  16.3244

          k =-0.5000-1.0000 0.0000 (  3852 PWs)   bands (ev):

   -15.8857 -15.8857 -15.7593 -15.7593 -15.7171 -15.7171 -15.6886 -15.6886
   -15.5644 -15.5644   0.3090   0.3090   5.2502   5.2502  13.1038  13.1038
    13.6373  13.6373

     the Fermi energy is     8.9220 ev

!    total energy              =    -357.28477693 Ry
     estimated scf accuracy    <       0.00000099 Ry
     smearing contrib. (-TS)   =      -0.00007244 Ry
     internal energy E=F+TS    =    -357.28470449 Ry

     The total energy is F=E-TS. E is the sum of the following terms:
     one-electron contribution =    -187.77597695 Ry
     hartree contribution      =     112.43892471 Ry
     xc contribution           =     -87.27452685 Ry
     ewald contribution        =    -194.67312539 Ry

     convergence has been achieved in   5 iterations

     Forces acting on atoms (cartesian axes, Ry/au):

     atom    1 type  1   force =    -0.00000000    0.00000000    0.00000000
     atom    2 type  1   force =     0.00000000   -0.00000000    0.00000000
     The non-local contrib.  to forces
     atom    1 type  1   force =     0.00000000    0.00000000    0.00000000
     atom    2 type  1   force =    -0.00000000   -0.00000000   -0.00000000
     The ionic contribution  to forces
     atom    1 type  1   force =    -0.00000000   -0.00000000   -0.00000000
     atom    2 type  1   force =     0.00000000    0.00000000    0.00000000
     The local contribution  to forces
     atom    1 type  1   force =     0.00000000   -0.00000000    0.00000000
     atom    2 type  1   force =    -0.00000000    0.00000000   -0.00000000
     The core correction contribution to forces
     atom    1 type  1   force =    -0.00000000   -0.00000000    0.00000000
     atom    2 type  1   force =     0.00000000    0.00000000   -0.00000000
     The Hubbard contrib.    to forces
     atom    1 type  1   force =     0.00000000    0.00000000    0.00000000
     atom    2 type  1   force =     0.00000000    0.00000000    0.00000000
     The SCF correction term to forces
     atom    1 type  1   force =    -0.00000000   -0.00000000   -0.00000000
     atom    2 type  1   force =    -0.00000000   -0.00000000   -0.00000000

     Total force =     0.000000     Total SCF correction =     0.000000


     Computing stress (Cartesian axis) and pressure

          total   stress  (Ry/bohr**3)                   (kbar)     P=        3.70
   0.00002516  -0.00000000  -0.00000000            3.70       -0.00       -0.00
  -0.00000000   0.00002516   0.00000000           -0.00        3.70        0.00
  -0.00000000   0.00000000   0.00002516           -0.00        0.00        3.70


     Writing all to output data dir ./Ge_out/Ge_scf.save/

     init_run     :      1.62s CPU      1.72s WALL (       1 calls)
     electrons    :     20.91s CPU     22.14s WALL (       1 calls)
     forces       :      0.23s CPU      0.24s WALL (       1 calls)
     stress       :      2.08s CPU      2.12s WALL (       1 calls)

     Called by init_run:
     wfcinit      :      1.17s CPU      1.23s WALL (       1 calls)
     potinit      :      0.05s CPU      0.06s WALL (       1 calls)
     hinit0       :      0.32s CPU      0.33s WALL (       1 calls)

     Called by electrons:
     c_bands      :     17.63s CPU     18.63s WALL (       6 calls)
     sum_band     :      3.11s CPU      3.27s WALL (       6 calls)
     v_of_rho     :      0.18s CPU      0.21s WALL (       6 calls)
     mix_rho      :      0.02s CPU      0.02s WALL (       6 calls)

     Called by c_bands:
     init_us_2    :      0.30s CPU      0.34s WALL (     435 calls)
     init_us_2:cp :      0.30s CPU      0.34s WALL (     435 calls)
     cegterg      :     16.76s CPU     17.62s WALL (     174 calls)

     Called by *egterg:
     cdiaghg      :      0.52s CPU      0.53s WALL (     575 calls)
     h_psi        :     15.69s CPU     16.55s WALL (     633 calls)
     g_psi        :      0.07s CPU      0.08s WALL (     430 calls)

     Called by h_psi:
     h_psi:calbec :      0.46s CPU      0.49s WALL (     633 calls)
     vloc_psi     :     14.73s CPU     15.54s WALL (     633 calls)
     add_vuspsi   :      0.44s CPU      0.46s WALL (     633 calls)

     General routines
     calbec       :      0.58s CPU      0.62s WALL (     778 calls)
     fft          :      0.36s CPU      0.38s WALL (      85 calls)
     ffts         :      0.01s CPU      0.01s WALL (       6 calls)
     fftw         :     15.67s CPU     16.52s WALL (   19538 calls)

     Parallel routines

     PWSCF        :     25.01s CPU     26.88s WALL


   This run was terminated on:  16:21:41  26Apr2025            

=------------------------------------------------------------------------------=
   JOB DONE.
=------------------------------------------------------------------------------=
