
     Program PWSCF v.7.2 starts on 26Apr2025 at 16:29: 6 

     This program is part of the open-source Quantum ESPRESSO suite
     for quantum simulation of materials; please cite
         "P. Giannozzi et al., J. Phys.:Condens. Matter 21 395502 (2009);
         "P. Giannozzi et al., J. Phys.:Condens. Matter 29 465901 (2017);
         "P. Giannozzi et al., J. Chem. Phys. 152 154105 (2020);
          URL http://www.quantum-espresso.org", 
     in publications or presentations arising from this work. More details at
     http://www.quantum-espresso.org/quote

     Parallel version (MPI), running on     4 processors

     MPI processes distributed on     1 nodes
     200853 MiB available memory on the printing compute node when the environment starts

     Waiting for input...
     Reading input from standard input
Warning: card &CELL ignored
Warning: card / ignored

     Current dimensions of program PWSCF are:
     Max number of different atomic species (ntypx) = 10
     Max number of k-points (npk) =  40000
     Max angular momentum in pseudopotentials (lmaxx) =  4

     R & G space division:  proc/nbgrp/npool/nimage =       4
     Subspace diagonalization in iterative solution of the eigenvalue problem:
     a serial algorithm will be used


     Parallelization info
     --------------------
     sticks:   dense  smooth     PW     G-vecs:    dense   smooth      PW
     Min         430     430    124                11794    11794    1808
     Max         431     431    125                11797    11797    1811
     Sum        1723    1723    499                47183    47183    7239

     Using Slab Decomposition



     bravais-lattice index     =            2
     lattice parameter (alat)  =      12.4722  a.u.
     unit-cell volume          =     485.0298 (a.u.)^3
     number of atoms/cell      =            2
     number of atomic types    =            1
     number of electrons       =        28.00
     number of Kohn-Sham states=           18
     kinetic-energy cutoff     =      80.0000  Ry
     charge density cutoff     =     320.0000  Ry
     scf convergence threshold =      1.0E-06
     mixing beta               =       0.4000
     number of iterations used =            8  plain     mixing
     Exchange-correlation= PBE
                           (   1   4   3   4   0   0   0)

     celldm(1)=  12.472192  celldm(2)=   0.000000  celldm(3)=   0.000000
     celldm(4)=   0.000000  celldm(5)=   0.000000  celldm(6)=   0.000000

     crystal axes: (cart. coord. in units of alat)
               a(1) = (  -0.500000   0.000000   0.500000 )  
               a(2) = (   0.000000   0.500000   0.500000 )  
               a(3) = (  -0.500000   0.500000   0.000000 )  

     reciprocal axes: (cart. coord. in units 2 pi/alat)
               b(1) = ( -1.000000 -1.000000  1.000000 )  
               b(2) = (  1.000000  1.000000  1.000000 )  
               b(3) = ( -1.000000  1.000000 -1.000000 )  


     PseudoPot. # 1 for Ge read from file:
     ./Ge.upf
     MD5 check sum: 087fa14d6c89b52166990835c3b338da
     Pseudo is Norm-conserving + core correction, Zval = 14.0
     Generated using ONCVPSP code by D. R. Hamann
     Using radial grid of 1560 points,  6 beta functions with: 
                l(1) =   0
                l(2) =   0
                l(3) =   1
                l(4) =   1
                l(5) =   2
                l(6) =   2

     atomic species   valence    mass     pseudopotential
        Ge            14.00    72.63000     Ge( 1.00)

     48 Sym. Ops., with inversion, found (24 have fractional translation)



   Cartesian axes

     site n.     atom                  positions (alat units)
         1           Ge  tau(   1) = (   0.0000000   0.0000000   0.0000000  )
         2           Ge  tau(   2) = (   0.2500000   0.2500000   0.2500000  )

     number of k points=    29  Gaussian smearing, width (Ry)=  0.0100
                       cart. coord. in units 2pi/alat
        k(    1) = (   0.0000000   0.0000000   0.0000000), wk =   0.0039062
        k(    2) = (  -0.1250000   0.1250000  -0.1250000), wk =   0.0312500
        k(    3) = (  -0.2500000   0.2500000  -0.2500000), wk =   0.0312500
        k(    4) = (  -0.3750000   0.3750000  -0.3750000), wk =   0.0312500
        k(    5) = (   0.5000000  -0.5000000   0.5000000), wk =   0.0156250
        k(    6) = (   0.0000000   0.2500000   0.0000000), wk =   0.0234375
        k(    7) = (  -0.1250000   0.3750000  -0.1250000), wk =   0.0937500
        k(    8) = (  -0.2500000   0.5000000  -0.2500000), wk =   0.0937500
        k(    9) = (   0.6250000  -0.3750000   0.6250000), wk =   0.0937500
        k(   10) = (   0.5000000  -0.2500000   0.5000000), wk =   0.0937500
        k(   11) = (   0.3750000  -0.1250000   0.3750000), wk =   0.0937500
        k(   12) = (   0.2500000   0.0000000   0.2500000), wk =   0.0468750
        k(   13) = (   0.0000000   0.5000000   0.0000000), wk =   0.0234375
        k(   14) = (  -0.1250000   0.6250000  -0.1250000), wk =   0.0937500
        k(   15) = (   0.7500000  -0.2500000   0.7500000), wk =   0.0937500
        k(   16) = (   0.6250000  -0.1250000   0.6250000), wk =   0.0937500
        k(   17) = (   0.5000000   0.0000000   0.5000000), wk =   0.0468750
        k(   18) = (   0.0000000   0.7500000   0.0000000), wk =   0.0234375
        k(   19) = (   0.8750000  -0.1250000   0.8750000), wk =   0.0937500
        k(   20) = (   0.7500000   0.0000000   0.7500000), wk =   0.0468750
        k(   21) = (   0.0000000  -1.0000000   0.0000000), wk =   0.0117188
        k(   22) = (  -0.2500000   0.5000000   0.0000000), wk =   0.0937500
        k(   23) = (   0.6250000  -0.3750000   0.8750000), wk =   0.1875000
        k(   24) = (   0.5000000  -0.2500000   0.7500000), wk =   0.0937500
        k(   25) = (   0.7500000  -0.2500000   1.0000000), wk =   0.0937500
        k(   26) = (   0.6250000  -0.1250000   0.8750000), wk =   0.1875000
        k(   27) = (   0.5000000   0.0000000   0.7500000), wk =   0.0937500
        k(   28) = (  -0.2500000  -1.0000000   0.0000000), wk =   0.0468750
        k(   29) = (  -0.5000000  -1.0000000   0.0000000), wk =   0.0234375

     Dense  grid:    47183 G-vectors     FFT dimensions: (  60,  60,  60)

     Estimated max dynamical RAM per process >      24.60 MB

     Estimated total dynamical RAM >      98.41 MB

     Initial potential from superposition of free atoms

     starting charge      27.9984, renormalised to      28.0000
     Starting wfcs are   18 randomized atomic wfcs

     total cpu time spent up to now is        3.3 secs

     Self-consistent Calculation

     iteration #  1     ecut=    80.00 Ry     beta= 0.40
     Davidson diagonalization with overlap
     ethr =  1.00E-02,  avg # of iterations =  2.8

     Threshold (ethr) on eigenvalues was too large:
     Diagonalizing with lowered threshold

     Davidson diagonalization with overlap
     ethr =  4.48E-05,  avg # of iterations =  4.6

     total cpu time spent up to now is       20.3 secs

     total energy              =    -357.21182550 Ry
     estimated scf accuracy    <       0.01425704 Ry

     iteration #  2     ecut=    80.00 Ry     beta= 0.40
     Davidson diagonalization with overlap
     ethr =  5.09E-05,  avg # of iterations =  1.0

     total cpu time spent up to now is       26.4 secs

     total energy              =    -357.21189465 Ry
     estimated scf accuracy    <       0.00486694 Ry

     iteration #  3     ecut=    80.00 Ry     beta= 0.40
     Davidson diagonalization with overlap
     ethr =  1.74E-05,  avg # of iterations =  1.0

     total cpu time spent up to now is       32.6 secs

     total energy              =    -357.21205118 Ry
     estimated scf accuracy    <       0.00005834 Ry

     iteration #  4     ecut=    80.00 Ry     beta= 0.40
     Davidson diagonalization with overlap
     ethr =  2.08E-07,  avg # of iterations =  2.3

     total cpu time spent up to now is       40.7 secs

     total energy              =    -357.21206894 Ry
     estimated scf accuracy    <       0.00000371 Ry

     iteration #  5     ecut=    80.00 Ry     beta= 0.40
     Davidson diagonalization with overlap
     ethr =  1.32E-08,  avg # of iterations =  2.2

     total cpu time spent up to now is       48.2 secs

     End of self-consistent calculation

          k = 0.0000 0.0000 0.0000 (  5961 PWs)   bands (ev):

   -20.2915 -20.2915 -20.2915 -20.2820 -20.2820 -20.2265 -20.2265 -20.2206
   -20.2206 -20.2206  -5.7345   0.8789   4.3204   4.3204   4.3204   6.5336
     6.5336   6.5336

          k =-0.1250 0.1250-0.1250 (  5877 PWs)   bands (ev):

   -20.2936 -20.2936 -20.2906 -20.2792 -20.2792 -20.2298 -20.2298 -20.2215
   -20.2178 -20.2178  -5.6171   0.3881   4.1396   4.1396   4.2789   6.7920
     6.7920   6.8254

          k =-0.2500 0.2500-0.2500 (  5880 PWs)   bands (ev):

   -20.2964 -20.2964 -20.2885 -20.2747 -20.2747 -20.2343 -20.2343 -20.2237
   -20.2145 -20.2145  -5.2838  -0.6387   3.8131   3.8131   3.9959   7.2478
     7.2478   7.8644

          k =-0.3750 0.3750-0.3750 (  5867 PWs)   bands (ev):

   -20.2981 -20.2981 -20.2862 -20.2717 -20.2717 -20.2373 -20.2373 -20.2260
   -20.2124 -20.2124  -4.8242  -1.6373   3.5671   3.5671   3.7048   7.5107
     7.5107   9.3156

          k = 0.5000-0.5000 0.5000 (  5900 PWs)   bands (ev):

   -20.2986 -20.2986 -20.2852 -20.2707 -20.2707 -20.2383 -20.2383 -20.2270
   -20.2117 -20.2117  -4.5519  -2.1053   3.4794   3.4794   3.5947   7.5695
     7.5695  10.2081

          k = 0.0000 0.2500 0.0000 (  5874 PWs)   bands (ev):

   -20.2932 -20.2932 -20.2928 -20.2798 -20.2761 -20.2337 -20.2286 -20.2185
   -20.2185 -20.2183  -5.5769   0.2614   3.8578   3.8578   4.8797   6.1156
     7.1979   7.1979

          k =-0.1250 0.3750-0.1250 (  5883 PWs)   bands (ev):

   -20.2970 -20.2955 -20.2899 -20.2763 -20.2709 -20.2391 -20.2322 -20.2215
   -20.2155 -20.2139  -5.3108  -0.5198   3.3868   3.5189   5.0523   6.2593
     7.7437   7.9026

          k =-0.2500 0.5000-0.2500 (  5857 PWs)   bands (ev):

   -20.3001 -20.2978 -20.2854 -20.2721 -20.2675 -20.2422 -20.2364 -20.2263
   -20.2127 -20.2104  -4.8735  -1.4800   2.8776   3.3102   4.8716   6.9340
     8.0237   8.6913

          k = 0.6250-0.3750 0.6250 (  5859 PWs)   bands (ev):

   -20.3015 -20.2992 -20.2817 -20.2689 -20.2677 -20.2416 -20.2398 -20.2302
   -20.2110 -20.2088  -4.4775  -2.1528   2.5679   3.2902   4.7006   7.3741
     7.9787   9.6185

          k = 0.5000-0.2500 0.5000 (  5861 PWs)   bands (ev):

   -20.3010 -20.2996 -20.2814 -20.2705 -20.2677 -20.2412 -20.2383 -20.2308
   -20.2107 -20.2094  -4.5816  -1.9894   2.5296   3.4581   4.6603   7.5550
     7.7573   9.4200

          k = 0.3750-0.1250 0.3750 (  5880 PWs)   bands (ev):

   -20.2987 -20.2986 -20.2850 -20.2738 -20.2698 -20.2394 -20.2352 -20.2269
   -20.2122 -20.2119  -5.0357  -1.1613   2.7932   3.7668   4.7179   7.3699
     7.3807   8.3882

          k = 0.2500 0.0000 0.2500 (  5887 PWs)   bands (ev):

   -20.2964 -20.2950 -20.2892 -20.2772 -20.2745 -20.2348 -20.2318 -20.2224
   -20.2164 -20.2145  -5.4257  -0.2234   3.3736   4.0836   4.6375   6.8302
     6.9076   7.7053

          k = 0.0000 0.5000 0.0000 (  5862 PWs)   bands (ev):

   -20.2969 -20.2969 -20.2914 -20.2737 -20.2642 -20.2465 -20.2344 -20.2196
   -20.2138 -20.2138  -5.1119  -0.9411   3.1627   3.1627   5.5184   5.6341
     8.4699   8.4699

          k =-0.1250 0.6250-0.1250 (  5859 PWs)   bands (ev):

   -20.3006 -20.2989 -20.2863 -20.2692 -20.2588 -20.2521 -20.2389 -20.2249
   -20.2113 -20.2098  -4.7167  -1.6787   2.6664   2.9403   5.4980   6.0085
     8.7885   8.9509

          k = 0.7500-0.2500 0.7500 (  5845 PWs)   bands (ev):

   -20.3039 -20.3004 -20.2793 -20.2647 -20.2582 -20.2523 -20.2436 -20.2320
   -20.2095 -20.2063  -4.2522  -2.3738   2.1340   2.9196   5.3776   7.0265
     8.8164   8.9504

          k = 0.6250-0.1250 0.6250 (  5859 PWs)   bands (ev):

   -20.3048 -20.3010 -20.2760 -20.2631 -20.2619 -20.2467 -20.2467 -20.2357
   -20.2090 -20.2053  -4.1794  -2.4694   1.9033   3.1033   5.3222   7.7914
     8.5909   8.9823

          k = 0.5000 0.0000 0.5000 (  5845 PWs)   bands (ev):

   -20.3027 -20.3005 -20.2782 -20.2702 -20.2642 -20.2447 -20.2385 -20.2341
   -20.2098 -20.2077  -4.6098  -1.8668   2.1044   3.4373   5.2227   7.8215
     7.9790   8.4248

          k = 0.0000 0.7500 0.0000 (  5842 PWs)   bands (ev):

   -20.3004 -20.3004 -20.2852 -20.2645 -20.2609 -20.2504 -20.2433 -20.2262
   -20.2095 -20.2095  -4.3640  -2.2069   2.6816   2.6816   5.2199   5.6292
     9.7743   9.7743

          k = 0.8750-0.1250 0.8750 (  5850 PWs)   bands (ev):

   -20.3030 -20.3013 -20.2782 -20.2655 -20.2593 -20.2485 -20.2458 -20.2332
   -20.2083 -20.2068  -3.8768  -2.8243   2.2780   2.6228   5.3533   5.9513
     9.7153   9.9873

          k = 0.7500 0.0000 0.7500 (  5862 PWs)   bands (ev):

   -20.3054 -20.3016 -20.2744 -20.2595 -20.2566 -20.2515 -20.2510 -20.2370
   -20.2081 -20.2045  -3.7229  -2.9886   1.8648   2.7780   5.3892   7.1985
     9.2133   9.5000

          k = 0.0000-1.0000 0.0000 (  5874 PWs)   bands (ev):

   -20.3017 -20.3017 -20.2745 -20.2745 -20.2538 -20.2538 -20.2370 -20.2370
   -20.2078 -20.2078  -3.3755  -3.3755   2.5142   2.5142   5.3017   5.3017
    10.4601  10.4601

          k =-0.2500 0.5000 0.0000 (  5862 PWs)   bands (ev):

   -20.2991 -20.2990 -20.2859 -20.2728 -20.2655 -20.2447 -20.2356 -20.2254
   -20.2117 -20.2115  -4.9822  -1.2232   2.6990   3.3661   5.4279   6.3320
     8.2886   8.3090

          k = 0.6250-0.3750 0.8750 (  5855 PWs)   bands (ev):

   -20.3026 -20.3005 -20.2796 -20.2687 -20.2621 -20.2476 -20.2399 -20.2319
   -20.2097 -20.2077  -4.5176  -2.0121   2.2278   3.1114   5.4737   7.0095
     8.3861   8.8185

          k = 0.5000-0.2500 0.7500 (  5856 PWs)   bands (ev):

   -20.3040 -20.3010 -20.2767 -20.2656 -20.2624 -20.2468 -20.2435 -20.2349
   -20.2091 -20.2061  -4.2254  -2.4293   2.0715   2.9989   5.4383   7.3329
     8.5530   9.1677

          k = 0.7500-0.2500 1.0000 (  5850 PWs)   bands (ev):

   -20.3023 -20.3018 -20.2800 -20.2645 -20.2576 -20.2533 -20.2436 -20.2312
   -20.2083 -20.2077  -4.2777  -2.3192   2.3070   2.6695   5.9573   5.9977
     8.7263   9.6136

          k = 0.6250-0.1250 0.8750 (  5859 PWs)   bands (ev):

   -20.3050 -20.3026 -20.2730 -20.2602 -20.2579 -20.2523 -20.2485 -20.2381
   -20.2073 -20.2050  -3.8472  -2.8446   1.9591   2.5647   5.9447   7.0931
     8.5919   9.2737

          k = 0.5000 0.0000 0.7500 (  5850 PWs)   bands (ev):

   -20.3051 -20.3023 -20.2733 -20.2626 -20.2564 -20.2531 -20.2466 -20.2379
   -20.2077 -20.2050  -4.0440  -2.6134   1.8760   2.7670   5.9042   7.4822
     8.4124   9.0310

          k =-0.2500-1.0000 0.0000 (  5846 PWs)   bands (ev):

   -20.3033 -20.3033 -20.2701 -20.2701 -20.2540 -20.2540 -20.2410 -20.2410
   -20.2065 -20.2065  -3.3660  -3.3660   2.2947   2.2947   5.9455   5.9455
     9.6346   9.6346

          k =-0.5000-1.0000 0.0000 (  5836 PWs)   bands (ev):

   -20.3046 -20.3046 -20.2646 -20.2646 -20.2546 -20.2546 -20.2458 -20.2458
   -20.2053 -20.2053  -3.3564  -3.3564   2.1164   2.1164   6.8779   6.8779
     8.5298   8.5298

     the Fermi energy is     4.0904 ev

!    total energy              =    -357.21206928 Ry
     estimated scf accuracy    <       0.00000099 Ry
     smearing contrib. (-TS)   =      -0.00036666 Ry
     internal energy E=F+TS    =    -357.21170262 Ry

     The total energy is F=E-TS. E is the sum of the following terms:
     one-electron contribution =    -229.78269084 Ry
     hartree contribution      =     128.81047749 Ry
     xc contribution           =     -86.93286203 Ry
     ewald contribution        =    -169.30662724 Ry

     convergence has been achieved in   5 iterations

     Forces acting on atoms (cartesian axes, Ry/au):

     atom    1 type  1   force =     0.00000000    0.00000000    0.00000000
     atom    2 type  1   force =     0.00000000    0.00000000    0.00000000
     The non-local contrib.  to forces
     atom    1 type  1   force =    -0.00000000    0.00000000   -0.00000000
     atom    2 type  1   force =     0.00000000   -0.00000000    0.00000000
     The ionic contribution  to forces
     atom    1 type  1   force =    -0.00000000    0.00000000   -0.00000000
     atom    2 type  1   force =    -0.00000000   -0.00000000    0.00000000
     The local contribution  to forces
     atom    1 type  1   force =    -0.00000000    0.00000000   -0.00000000
     atom    2 type  1   force =     0.00000000   -0.00000000    0.00000000
     The core correction contribution to forces
     atom    1 type  1   force =     0.00000000    0.00000000    0.00000000
     atom    2 type  1   force =    -0.00000000   -0.00000000   -0.00000000
     The Hubbard contrib.    to forces
     atom    1 type  1   force =     0.00000000    0.00000000    0.00000000
     atom    2 type  1   force =     0.00000000    0.00000000    0.00000000
     The SCF correction term to forces
     atom    1 type  1   force =    -0.00000000   -0.00000000   -0.00000000
     atom    2 type  1   force =    -0.00000000    0.00000000    0.00000000

     Total force =     0.000000     Total SCF correction =     0.000000


     Computing stress (Cartesian axis) and pressure

          total   stress  (Ry/bohr**3)                   (kbar)     P=      -89.13
  -0.00060589  -0.00000000  -0.00000000          -89.13       -0.00       -0.00
  -0.00000000  -0.00060589   0.00000000           -0.00      -89.13        0.00
  -0.00000000   0.00000000  -0.00060589           -0.00        0.00      -89.13


     Writing all to output data dir ./Ge_out/Ge_scf.save/

     init_run     :      2.95s CPU      3.11s WALL (       1 calls)
     electrons    :     42.76s CPU     44.87s WALL (       1 calls)
     forces       :      0.36s CPU      0.39s WALL (       1 calls)
     stress       :      3.25s CPU      3.31s WALL (       1 calls)

     Called by init_run:
     wfcinit      :      2.31s CPU      2.43s WALL (       1 calls)
     potinit      :      0.09s CPU      0.10s WALL (       1 calls)
     hinit0       :      0.38s CPU      0.40s WALL (       1 calls)

     Called by electrons:
     c_bands      :     35.59s CPU     37.31s WALL (       6 calls)
     sum_band     :      6.82s CPU      7.12s WALL (       6 calls)
     v_of_rho     :      0.38s CPU      0.43s WALL (       6 calls)
     mix_rho      :      0.03s CPU      0.04s WALL (       6 calls)

     Called by c_bands:
     init_us_2    :      0.50s CPU      0.55s WALL (     435 calls)
     init_us_2:cp :      0.50s CPU      0.55s WALL (     435 calls)
     cegterg      :     34.24s CPU     35.77s WALL (     174 calls)

     Called by *egterg:
     cdiaghg      :      0.53s CPU      0.54s WALL (     551 calls)
     h_psi        :     33.32s CPU     34.84s WALL (     609 calls)
     g_psi        :      0.13s CPU      0.13s WALL (     406 calls)

     Called by h_psi:
     h_psi:calbec :      0.70s CPU      0.75s WALL (     609 calls)
     vloc_psi     :     31.83s CPU     33.24s WALL (     609 calls)
     add_vuspsi   :      0.68s CPU      0.70s WALL (     609 calls)

     General routines
     calbec       :      0.89s CPU      0.94s WALL (     754 calls)
     fft          :      0.49s CPU      0.52s WALL (      85 calls)
     ffts         :      0.01s CPU      0.02s WALL (       6 calls)
     fftw         :     32.90s CPU     34.36s WALL (   19956 calls)

     Parallel routines

     PWSCF        :     49.52s CPU     52.50s WALL


   This run was terminated on:  16:29:58  26Apr2025            

=------------------------------------------------------------------------------=
   JOB DONE.
=------------------------------------------------------------------------------=
