
     Program PWSCF v.7.2 starts on 26Apr2025 at 16:23:34 

     This program is part of the open-source Quantum ESPRESSO suite
     for quantum simulation of materials; please cite
         "P. Giannozzi et al., J. Phys.:Condens. Matter 21 395502 (2009);
         "P. Giannozzi et al., J. Phys.:Condens. Matter 29 465901 (2017);
         "P. Giannozzi et al., J. Chem. Phys. 152 154105 (2020);
          URL http://www.quantum-espresso.org", 
     in publications or presentations arising from this work. More details at
     http://www.quantum-espresso.org/quote

     Parallel version (MPI), running on     4 processors

     MPI processes distributed on     1 nodes
     200839 MiB available memory on the printing compute node when the environment starts

     Waiting for input...
     Reading input from standard input
Warning: card &CELL ignored
Warning: card / ignored

     Current dimensions of program PWSCF are:
     Max number of different atomic species (ntypx) = 10
     Max number of k-points (npk) =  40000
     Max angular momentum in pseudopotentials (lmaxx) =  4

     R & G space division:  proc/nbgrp/npool/nimage =       4
     Subspace diagonalization in iterative solution of the eigenvalue problem:
     a serial algorithm will be used


     Parallelization info
     --------------------
     sticks:   dense  smooth     PW     G-vecs:    dense   smooth      PW
     Min         336     336     95                 8160     8160    1266
     Max         337     337     98                 8164     8164    1267
     Sum        1345    1345    385                32647    32647    5065

     Using Slab Decomposition



     bravais-lattice index     =            2
     lattice parameter (alat)  =      11.0360  a.u.
     unit-cell volume          =     336.0278 (a.u.)^3
     number of atoms/cell      =            2
     number of atomic types    =            1
     number of electrons       =        28.00
     number of Kohn-Sham states=           18
     kinetic-energy cutoff     =      80.0000  Ry
     charge density cutoff     =     320.0000  Ry
     scf convergence threshold =      1.0E-06
     mixing beta               =       0.4000
     number of iterations used =            8  plain     mixing
     Exchange-correlation= PBE
                           (   1   4   3   4   0   0   0)

     celldm(1)=  11.036001  celldm(2)=   0.000000  celldm(3)=   0.000000
     celldm(4)=   0.000000  celldm(5)=   0.000000  celldm(6)=   0.000000

     crystal axes: (cart. coord. in units of alat)
               a(1) = (  -0.500000   0.000000   0.500000 )  
               a(2) = (   0.000000   0.500000   0.500000 )  
               a(3) = (  -0.500000   0.500000   0.000000 )  

     reciprocal axes: (cart. coord. in units 2 pi/alat)
               b(1) = ( -1.000000 -1.000000  1.000000 )  
               b(2) = (  1.000000  1.000000  1.000000 )  
               b(3) = ( -1.000000  1.000000 -1.000000 )  


     PseudoPot. # 1 for Ge read from file:
     ./Ge.upf
     MD5 check sum: 087fa14d6c89b52166990835c3b338da
     Pseudo is Norm-conserving + core correction, Zval = 14.0
     Generated using ONCVPSP code by D. R. Hamann
     Using radial grid of 1560 points,  6 beta functions with: 
                l(1) =   0
                l(2) =   0
                l(3) =   1
                l(4) =   1
                l(5) =   2
                l(6) =   2

     atomic species   valence    mass     pseudopotential
        Ge            14.00    72.63000     Ge( 1.00)

     48 Sym. Ops., with inversion, found (24 have fractional translation)



   Cartesian axes

     site n.     atom                  positions (alat units)
         1           Ge  tau(   1) = (   0.0000000   0.0000000   0.0000000  )
         2           Ge  tau(   2) = (   0.2500000   0.2500000   0.2500000  )

     number of k points=    29  Gaussian smearing, width (Ry)=  0.0100
                       cart. coord. in units 2pi/alat
        k(    1) = (   0.0000000   0.0000000   0.0000000), wk =   0.0039062
        k(    2) = (  -0.1250000   0.1250000  -0.1250000), wk =   0.0312500
        k(    3) = (  -0.2500000   0.2500000  -0.2500000), wk =   0.0312500
        k(    4) = (  -0.3750000   0.3750000  -0.3750000), wk =   0.0312500
        k(    5) = (   0.5000000  -0.5000000   0.5000000), wk =   0.0156250
        k(    6) = (   0.0000000   0.2500000   0.0000000), wk =   0.0234375
        k(    7) = (  -0.1250000   0.3750000  -0.1250000), wk =   0.0937500
        k(    8) = (  -0.2500000   0.5000000  -0.2500000), wk =   0.0937500
        k(    9) = (   0.6250000  -0.3750000   0.6250000), wk =   0.0937500
        k(   10) = (   0.5000000  -0.2500000   0.5000000), wk =   0.0937500
        k(   11) = (   0.3750000  -0.1250000   0.3750000), wk =   0.0937500
        k(   12) = (   0.2500000   0.0000000   0.2500000), wk =   0.0468750
        k(   13) = (   0.0000000   0.5000000   0.0000000), wk =   0.0234375
        k(   14) = (  -0.1250000   0.6250000  -0.1250000), wk =   0.0937500
        k(   15) = (   0.7500000  -0.2500000   0.7500000), wk =   0.0937500
        k(   16) = (   0.6250000  -0.1250000   0.6250000), wk =   0.0937500
        k(   17) = (   0.5000000   0.0000000   0.5000000), wk =   0.0468750
        k(   18) = (   0.0000000   0.7500000   0.0000000), wk =   0.0234375
        k(   19) = (   0.8750000  -0.1250000   0.8750000), wk =   0.0937500
        k(   20) = (   0.7500000   0.0000000   0.7500000), wk =   0.0468750
        k(   21) = (   0.0000000  -1.0000000   0.0000000), wk =   0.0117188
        k(   22) = (  -0.2500000   0.5000000   0.0000000), wk =   0.0937500
        k(   23) = (   0.6250000  -0.3750000   0.8750000), wk =   0.1875000
        k(   24) = (   0.5000000  -0.2500000   0.7500000), wk =   0.0937500
        k(   25) = (   0.7500000  -0.2500000   1.0000000), wk =   0.0937500
        k(   26) = (   0.6250000  -0.1250000   0.8750000), wk =   0.1875000
        k(   27) = (   0.5000000   0.0000000   0.7500000), wk =   0.0937500
        k(   28) = (  -0.2500000  -1.0000000   0.0000000), wk =   0.0468750
        k(   29) = (  -0.5000000  -1.0000000   0.0000000), wk =   0.0234375

     Dense  grid:    32647 G-vectors     FFT dimensions: (  48,  48,  48)

     Estimated max dynamical RAM per process >      16.83 MB

     Estimated total dynamical RAM >      67.33 MB

     Initial potential from superposition of free atoms

     starting charge      27.9984, renormalised to      28.0000
     Starting wfcs are   18 randomized atomic wfcs

     total cpu time spent up to now is        1.9 secs

     Self-consistent Calculation

     iteration #  1     ecut=    80.00 Ry     beta= 0.40
     Davidson diagonalization with overlap
     ethr =  1.00E-02,  avg # of iterations =  3.6

     Threshold (ethr) on eigenvalues was too large:
     Diagonalizing with lowered threshold

     Davidson diagonalization with overlap
     ethr =  9.62E-05,  avg # of iterations =  4.0

     total cpu time spent up to now is       10.6 secs

     total energy              =    -357.28446914 Ry
     estimated scf accuracy    <       0.02920014 Ry

     iteration #  2     ecut=    80.00 Ry     beta= 0.40
     Davidson diagonalization with overlap
     ethr =  1.04E-04,  avg # of iterations =  1.0

     total cpu time spent up to now is       13.7 secs

     total energy              =    -357.28347761 Ry
     estimated scf accuracy    <       0.00913763 Ry

     iteration #  3     ecut=    80.00 Ry     beta= 0.40
     Davidson diagonalization with overlap
     ethr =  3.26E-05,  avg # of iterations =  1.1

     total cpu time spent up to now is       16.8 secs

     total energy              =    -357.28392018 Ry
     estimated scf accuracy    <       0.00010385 Ry

     iteration #  4     ecut=    80.00 Ry     beta= 0.40
     Davidson diagonalization with overlap
     ethr =  3.71E-07,  avg # of iterations =  2.9

     total cpu time spent up to now is       21.1 secs

     total energy              =    -357.28394265 Ry
     estimated scf accuracy    <       0.00000865 Ry

     iteration #  5     ecut=    80.00 Ry     beta= 0.40
     Davidson diagonalization with overlap
     ethr =  3.09E-08,  avg # of iterations =  1.7

     total cpu time spent up to now is       24.4 secs

     End of self-consistent calculation

          k = 0.0000 0.0000 0.0000 (  4015 PWs)   bands (ev):

   -16.4702 -16.4702 -16.4702 -16.4429 -16.4429 -16.2772 -16.2772 -16.2772
   -16.2727 -16.2727  -3.8214   7.4575   8.2627   8.2627   8.2627  10.7691
    10.7691  10.7691

          k =-0.1250 0.1250-0.1250 (  4047 PWs)   bands (ev):

   -16.4765 -16.4765 -16.4682 -16.4342 -16.4342 -16.2891 -16.2891 -16.2794
   -16.2622 -16.2622  -3.6480   5.7280   7.9684   7.9684   8.9087  11.1695
    11.1695  11.4857

          k =-0.2500 0.2500-0.2500 (  4050 PWs)   bands (ev):

   -16.4844 -16.4844 -16.4632 -16.4210 -16.4210 -16.3008 -16.3008 -16.2850
   -16.2534 -16.2534  -3.1473   3.6306   7.4759   7.4759   8.6316  11.7665
    11.7665  13.3743

          k =-0.3750 0.3750-0.3750 (  4062 PWs)   bands (ev):

   -16.4885 -16.4885 -16.4581 -16.4127 -16.4127 -16.3073 -16.3073 -16.2908
   -16.2486 -16.2486  -2.4235   1.8809   7.1222   7.1222   8.2968  11.9545
    11.9545  15.2754

          k = 0.5000-0.5000 0.5000 (  4092 PWs)   bands (ev):

   -16.4896 -16.4896 -16.4559 -16.4104 -16.4104 -16.3089 -16.3089 -16.2933
   -16.2472 -16.2472  -1.9556   1.0624   6.9986   6.9986   8.1734  11.9447
    11.9447  15.3336

          k = 0.0000 0.2500 0.0000 (  4047 PWs)   bands (ev):

   -16.4757 -16.4748 -16.4748 -16.4362 -16.4248 -16.3054 -16.2789 -16.2706
   -16.2706 -16.2593  -3.5892   5.6120   7.4963   7.4963   9.9749  10.1737
    11.8303  11.8303

          k =-0.1250 0.3750-0.1250 (  4042 PWs)   bands (ev):

   -16.4866 -16.4813 -16.4675 -16.4254 -16.4095 -16.3213 -16.2911 -16.2742
   -16.2599 -16.2509  -3.1927   4.0500   6.8802   6.9885   9.9849  10.6197
    12.5976  12.8814

          k =-0.2500 0.5000-0.2500 (  4062 PWs)   bands (ev):

   -16.4952 -16.4873 -16.4558 -16.4136 -16.3999 -16.3285 -16.3033 -16.2868
   -16.2510 -16.2419  -2.5194   2.3219   6.2385   6.6979   9.6382  11.4262
    12.8125  13.6833

          k = 0.6250-0.3750 0.6250 (  4053 PWs)   bands (ev):

   -16.4988 -16.4913 -16.4460 -16.4045 -16.4014 -16.3231 -16.3135 -16.2989
   -16.2452 -16.2379  -1.8618   1.1424   5.8188   6.6895   9.4083  11.7375
    12.5978  15.1311

          k = 0.5000-0.2500 0.5000 (  4051 PWs)   bands (ev):

   -16.4969 -16.4931 -16.4447 -16.4097 -16.4003 -16.3199 -16.3092 -16.3040
   -16.2428 -16.2406  -2.0403   1.4310   5.7043   6.9556   9.4018  11.9697
    12.3183  15.2159

          k = 0.3750-0.1250 0.3750 (  4056 PWs)   bands (ev):

   -16.4914 -16.4899 -16.4537 -16.4188 -16.4056 -16.3172 -16.3044 -16.2891
   -16.2499 -16.2447  -2.7710   2.8730   5.9582   7.4292   9.5778  11.9082
    12.0675  13.6156

          k = 0.2500 0.0000 0.2500 (  4043 PWs)   bands (ev):

   -16.4851 -16.4799 -16.4650 -16.4285 -16.4198 -16.3050 -16.2965 -16.2740
   -16.2638 -16.2514  -3.3634   4.5490   6.7251   7.9159   9.5815  11.2947
    11.3842  12.7188

          k = 0.0000 0.5000 0.0000 (  4064 PWs)   bands (ev):

   -16.4848 -16.4848 -16.4742 -16.4170 -16.3897 -16.3456 -16.2967 -16.2610
   -16.2558 -16.2558  -2.9009   3.4963   6.4488   6.4488   9.3524  10.7398
    13.7302  13.7302

          k =-0.1250 0.6250-0.1250 (  4059 PWs)   bands (ev):

   -16.4959 -16.4901 -16.4595 -16.4036 -16.3742 -16.3615 -16.3102 -16.2782
   -16.2475 -16.2412  -2.3038   2.2784   5.7066   6.1294   9.5730  10.7900
    13.7082  14.3384

          k = 0.7500-0.2500 0.7500 (  4069 PWs)   bands (ev):

   -16.5057 -16.4944 -16.4401 -16.3903 -16.3742 -16.3593 -16.3250 -16.2989
   -16.2410 -16.2303  -1.5635   1.1180   4.9145   6.1127   9.6652  12.1568
    13.4855  14.1646

          k = 0.6250-0.1250 0.6250 (  4064 PWs)   bands (ev):

   -16.5083 -16.4969 -16.4304 -16.3880 -16.3817 -16.3424 -16.3362 -16.3095
   -16.2380 -16.2279  -1.4260   0.9371   4.5398   6.3990   9.8040  12.9421
    13.6574  14.6007

          k = 0.5000 0.0000 0.5000 (  4069 PWs)   bands (ev):

   -16.5020 -16.4962 -16.4356 -16.4086 -16.3883 -16.3325 -16.3146 -16.3088
   -16.2392 -16.2356  -2.1160   1.8943   4.8093   6.9145  10.0187  12.8310
    13.0437  13.2872

          k = 0.0000 0.7500 0.0000 (  4064 PWs)   bands (ev):

   -16.4938 -16.4938 -16.4582 -16.3890 -16.3888 -16.3495 -16.3236 -16.2793
   -16.2419 -16.2419  -1.7837   1.5018   5.7480   5.7480   8.9518   9.8558
    15.7405  15.7406

          k = 0.8750-0.1250 0.8750 (  4070 PWs)   bands (ev):

   -16.5022 -16.4966 -16.4381 -16.4014 -16.3731 -16.3397 -16.3364 -16.3001
   -16.2376 -16.2326  -1.0352   0.5515   5.0831   5.6671   9.2455  10.1975
    15.5698  16.0105

          k = 0.7500 0.0000 0.7500 (  4065 PWs)   bands (ev):

   -16.5099 -16.4979 -16.4271 -16.3821 -16.3647 -16.3530 -16.3502 -16.3113
   -16.2362 -16.2252  -0.7423   0.2587   4.4022   5.9032   9.4615  12.1435
    14.9146  15.1789

          k = 0.0000-1.0000 0.0000 (  4088 PWs)   bands (ev):

   -16.4973 -16.4973 -16.4285 -16.4285 -16.3559 -16.3559 -16.3106 -16.3106
   -16.2363 -16.2363  -0.2896  -0.2896   5.5064   5.5064   9.1183   9.1183
    17.0062  17.0063

          k =-0.2500 0.5000 0.0000 (  4053 PWs)   bands (ev):

   -16.4924 -16.4908 -16.4568 -16.4153 -16.3932 -16.3380 -16.3011 -16.2835
   -16.2488 -16.2442  -2.6982   2.9407   5.7177   6.8112  10.5787  10.6527
    12.8544  13.4663

          k = 0.6250-0.3750 0.8750 (  4068 PWs)   bands (ev):

   -16.5019 -16.4958 -16.4397 -16.4036 -16.3835 -16.3451 -16.3138 -16.3021
   -16.2405 -16.2349  -1.9734   1.6413   5.0724   6.3911  10.4490  11.5532
    13.0129  14.0769

          k = 0.5000-0.2500 0.7500 (  4044 PWs)   bands (ev):

   -16.5059 -16.4969 -16.4320 -16.3949 -16.3846 -16.3413 -16.3261 -16.3088
   -16.2386 -16.2302  -1.4843   0.9203   4.8901   6.2032  10.3687  11.6538
    13.7091  14.7657

          k = 0.7500-0.2500 1.0000 (  4069 PWs)   bands (ev):

   -16.5000 -16.4993 -16.4417 -16.3895 -16.3777 -16.3579 -16.3249 -16.2962
   -16.2364 -16.2358  -1.6345   1.3141   5.1327   5.6856  10.1403  10.6863
    13.5625  15.6046

          k = 0.6250-0.1250 0.8750 (  4068 PWs)   bands (ev):

   -16.5085 -16.5013 -16.4217 -16.3799 -16.3745 -16.3553 -16.3412 -16.3154
   -16.2335 -16.2268  -0.9443   0.4944   4.5701   5.5151  10.4773  12.2077
    13.1739  14.8775

          k = 0.5000 0.0000 0.7500 (  4068 PWs)   bands (ev):

   -16.5088 -16.5008 -16.4224 -16.3856 -16.3659 -16.3615 -16.3373 -16.3151
   -16.2342 -16.2269  -1.2400   0.8278   4.4364   5.8355  10.7493  12.5393
    13.0364  14.5896

          k =-0.2500-1.0000 0.0000 (  4062 PWs)   bands (ev):

   -16.5029 -16.5029 -16.4142 -16.4142 -16.3570 -16.3570 -16.3230 -16.3230
   -16.2315 -16.2315  -0.2542  -0.2542   5.1048   5.1048  10.1880  10.1880
    15.3583  15.3583

          k =-0.5000-1.0000 0.0000 (  4056 PWs)   bands (ev):

   -16.5075 -16.5075 -16.3967 -16.3967 -16.3609 -16.3609 -16.3362 -16.3362
   -16.2274 -16.2274  -0.2174  -0.2174   4.7890   4.7890  12.2062  12.2062
    12.9087  12.9087

     the Fermi energy is     8.1517 ev

!    total energy              =    -357.28394271 Ry
     estimated scf accuracy    <       0.00000096 Ry
     smearing contrib. (-TS)   =      -0.00012354 Ry
     internal energy E=F+TS    =    -357.28381917 Ry

     The total energy is F=E-TS. E is the sum of the following terms:
     one-electron contribution =    -193.21588122 Ry
     hartree contribution      =     114.49573119 Ry
     xc contribution           =     -87.22398767 Ry
     ewald contribution        =    -191.33968147 Ry

     convergence has been achieved in   5 iterations

     Forces acting on atoms (cartesian axes, Ry/au):

     atom    1 type  1   force =     0.00000000    0.00000000    0.00000000
     atom    2 type  1   force =     0.00000000    0.00000000    0.00000000
     The non-local contrib.  to forces
     atom    1 type  1   force =     0.00000000    0.00000000   -0.00000000
     atom    2 type  1   force =     0.00000000    0.00000000    0.00000000
     The ionic contribution  to forces
     atom    1 type  1   force =     0.00000000    0.00000000    0.00000000
     atom    2 type  1   force =    -0.00000000   -0.00000000    0.00000000
     The local contribution  to forces
     atom    1 type  1   force =    -0.00000000    0.00000000   -0.00000000
     atom    2 type  1   force =     0.00000000   -0.00000000    0.00000000
     The core correction contribution to forces
     atom    1 type  1   force =     0.00000000   -0.00000000   -0.00000000
     atom    2 type  1   force =    -0.00000000    0.00000000    0.00000000
     The Hubbard contrib.    to forces
     atom    1 type  1   force =     0.00000000    0.00000000    0.00000000
     atom    2 type  1   force =     0.00000000    0.00000000    0.00000000
     The SCF correction term to forces
     atom    1 type  1   force =     0.00000000   -0.00000000    0.00000000
     atom    2 type  1   force =     0.00000000    0.00000000   -0.00000000

     Total force =     0.000000     Total SCF correction =     0.000000


     Computing stress (Cartesian axis) and pressure

          total   stress  (Ry/bohr**3)                   (kbar)     P=      -24.51
  -0.00016662  -0.00000000  -0.00000000          -24.51       -0.00       -0.00
  -0.00000000  -0.00016662   0.00000000           -0.00      -24.51        0.00
  -0.00000000   0.00000000  -0.00016662           -0.00        0.00      -24.51


     Writing all to output data dir ./Ge_out/Ge_scf.save/

     init_run     :      1.62s CPU      1.73s WALL (       1 calls)
     electrons    :     21.17s CPU     22.45s WALL (       1 calls)
     forces       :      0.24s CPU      0.25s WALL (       1 calls)
     stress       :      2.20s CPU      2.24s WALL (       1 calls)

     Called by init_run:
     wfcinit      :      1.17s CPU      1.24s WALL (       1 calls)
     potinit      :      0.05s CPU      0.06s WALL (       1 calls)
     hinit0       :      0.32s CPU      0.33s WALL (       1 calls)

     Called by electrons:
     c_bands      :     17.83s CPU     18.87s WALL (       6 calls)
     sum_band     :      3.15s CPU      3.34s WALL (       6 calls)
     v_of_rho     :      0.19s CPU      0.21s WALL (       6 calls)
     mix_rho      :      0.02s CPU      0.02s WALL (       6 calls)

     Called by c_bands:
     init_us_2    :      0.32s CPU      0.36s WALL (     435 calls)
     init_us_2:cp :      0.32s CPU      0.36s WALL (     435 calls)
     cegterg      :     16.91s CPU     17.77s WALL (     174 calls)

     Called by *egterg:
     cdiaghg      :      0.51s CPU      0.52s WALL (     557 calls)
     h_psi        :     15.76s CPU     16.63s WALL (     615 calls)
     g_psi        :      0.08s CPU      0.08s WALL (     412 calls)

     Called by h_psi:
     h_psi:calbec :      0.48s CPU      0.52s WALL (     615 calls)
     vloc_psi     :     14.75s CPU     15.57s WALL (     615 calls)
     add_vuspsi   :      0.46s CPU      0.47s WALL (     615 calls)

     General routines
     calbec       :      0.63s CPU      0.67s WALL (     760 calls)
     fft          :      0.36s CPU      0.38s WALL (      85 calls)
     ffts         :      0.01s CPU      0.01s WALL (       6 calls)
     fftw         :     15.66s CPU     16.53s WALL (   19506 calls)

     Parallel routines

     PWSCF        :     25.41s CPU     27.33s WALL


   This run was terminated on:  16:24: 2  26Apr2025            

=------------------------------------------------------------------------------=
   JOB DONE.
=------------------------------------------------------------------------------=
