
     Program PWSCF v.6.8 starts on 26May2025 at 16:51:36 

     This program is part of the open-source Quantum ESPRESSO suite
     for quantum simulation of materials; please cite
         "P. Giannozzi et al., J. Phys.:Condens. Matter 21 395502 (2009);
         "P. Giannozzi et al., J. Phys.:Condens. Matter 29 465901 (2017);
         "P. Giannozzi et al., J. Chem. Phys. 152 154105 (2020);
          URL http://www.quantum-espresso.org", 
     in publications or presentations arising from this work. More details at
     http://www.quantum-espresso.org/quote

     Parallel version (MPI & OpenMP), running on       8 processor cores
     Number of MPI processes:                 8
     Threads/MPI process:                     1

     MPI processes distributed on     1 nodes
     K-points division:     npool     =       4
     R & G space division:  proc/nbgrp/npool/nimage =       2
     187946 MiB available memory on the printing compute node when the environment starts
 
     Reading input from 00_scf.in

     Current dimensions of program PWSCF are:
     Max number of different atomic species (ntypx) = 10
     Max number of k-points (npk) =  40000
     Max angular momentum in pseudopotentials (lmaxx) =  4
     Message from routine setup:
     using ibrav=0 with symmetry is DISCOURAGED, use correct ibrav instead

     Subspace diagonalization in iterative solution of the eigenvalue problem:
     a serial algorithm will be used

 
     Parallelization info
     --------------------
     sticks:   dense  smooth     PW     G-vecs:    dense   smooth      PW
     Min         483     483    147                10089    10089    1643
     Max         484     484    148                10090    10090    1644
     Sum         967     967    295                20179    20179    3287
 
     Using Slab Decomposition
 


     bravais-lattice index     =            0
     lattice parameter (alat)  =      10.8848  a.u.
     unit-cell volume          =     322.4067 (a.u.)^3
     number of atoms/cell      =            2
     number of atomic types    =            1
     number of electrons       =        28.00
     number of Kohn-Sham states=           18
     kinetic-energy cutoff     =      60.0000  Ry
     charge density cutoff     =     240.0000  Ry
     scf convergence threshold =      1.0E-06
     mixing beta               =       0.5000
     number of iterations used =            8  plain     mixing
     Exchange-correlation= PBE
                           (   1   4   3   4   0   0   0)

     celldm(1)=  10.884822  celldm(2)=   0.000000  celldm(3)=   0.000000
     celldm(4)=   0.000000  celldm(5)=   0.000000  celldm(6)=   0.000000

     crystal axes: (cart. coord. in units of alat)
               a(1) = (   0.000000   0.500000   0.500000 )  
               a(2) = (   0.500000   0.000000   0.500000 )  
               a(3) = (   0.500000   0.500000   0.000000 )  

     reciprocal axes: (cart. coord. in units 2 pi/alat)
               b(1) = ( -1.000000  1.000000  1.000000 )  
               b(2) = (  1.000000 -1.000000  1.000000 )  
               b(3) = (  1.000000  1.000000 -1.000000 )  


     PseudoPot. # 1 for Ge read from file:
     ./Ge.upf
     MD5 check sum: 087fa14d6c89b52166990835c3b338da
     Pseudo is Norm-conserving + core correction, Zval = 14.0
     Generated using ONCVPSP code by D. R. Hamann
     Using radial grid of 1560 points,  6 beta functions with: 
                l(1) =   0
                l(2) =   0
                l(3) =   1
                l(4) =   1
                l(5) =   2
                l(6) =   2

     atomic species   valence    mass     pseudopotential
        Ge            14.00    72.63000     Ge( 1.00)

     48 Sym. Ops., with inversion, found (24 have fractional translation)



   Cartesian axes

     site n.     atom                  positions (alat units)
         1           Ge  tau(   1) = (   0.0000000   0.0000000   0.0000000  )
         2           Ge  tau(   2) = (   0.2500000   0.2500000   0.2500000  )

     number of k points=    29  Gaussian smearing, width (Ry)=  0.0100
                       cart. coord. in units 2pi/alat
        k(    1) = (   0.0000000   0.0000000   0.0000000), wk =   0.0039062
        k(    2) = (   0.1250000   0.1250000  -0.1250000), wk =   0.0312500
        k(    3) = (   0.2500000   0.2500000  -0.2500000), wk =   0.0312500
        k(    4) = (   0.3750000   0.3750000  -0.3750000), wk =   0.0312500
        k(    5) = (  -0.5000000  -0.5000000   0.5000000), wk =   0.0156250
        k(    6) = (   0.2500000   0.0000000   0.0000000), wk =   0.0234375
        k(    7) = (   0.3750000   0.1250000  -0.1250000), wk =   0.0937500
        k(    8) = (   0.5000000   0.2500000  -0.2500000), wk =   0.0937500
        k(    9) = (  -0.3750000  -0.6250000   0.6250000), wk =   0.0937500
        k(   10) = (  -0.2500000  -0.5000000   0.5000000), wk =   0.0937500
        k(   11) = (  -0.1250000  -0.3750000   0.3750000), wk =   0.0937500
        k(   12) = (   0.0000000  -0.2500000   0.2500000), wk =   0.0468750
        k(   13) = (   0.5000000   0.0000000   0.0000000), wk =   0.0234375
        k(   14) = (   0.6250000   0.1250000  -0.1250000), wk =   0.0937500
        k(   15) = (  -0.2500000  -0.7500000   0.7500000), wk =   0.0937500
        k(   16) = (  -0.1250000  -0.6250000   0.6250000), wk =   0.0937500
        k(   17) = (   0.0000000  -0.5000000   0.5000000), wk =   0.0468750
        k(   18) = (   0.7500000   0.0000000   0.0000000), wk =   0.0234375
        k(   19) = (  -0.1250000  -0.8750000   0.8750000), wk =   0.0937500
        k(   20) = (   0.0000000  -0.7500000   0.7500000), wk =   0.0468750
        k(   21) = (  -1.0000000   0.0000000   0.0000000), wk =   0.0117188
        k(   22) = (   0.5000000   0.2500000   0.0000000), wk =   0.0937500
        k(   23) = (  -0.3750000  -0.6250000   0.8750000), wk =   0.1875000
        k(   24) = (  -0.2500000  -0.5000000   0.7500000), wk =   0.0937500
        k(   25) = (  -0.2500000  -0.7500000   1.0000000), wk =   0.0937500
        k(   26) = (  -0.1250000  -0.6250000   0.8750000), wk =   0.1875000
        k(   27) = (   0.0000000  -0.5000000   0.7500000), wk =   0.0937500
        k(   28) = (  -1.0000000   0.2500000   0.0000000), wk =   0.0468750
        k(   29) = (  -1.0000000   0.5000000   0.0000000), wk =   0.0234375

     Dense  grid:    20179 G-vectors     FFT dimensions: (  40,  40,  40)

     Estimated max dynamical RAM per process >      12.92 MB

     Estimated total dynamical RAM >      88.56 MB

     Initial potential from superposition of free atoms

     starting charge   27.99835, renormalised to   28.00000
     Starting wfcs are   18 randomized atomic wfcs

     total cpu time spent up to now is        0.3 secs

     Self-consistent Calculation

     iteration #  1     ecut=    60.00 Ry     beta= 0.50
     Davidson diagonalization with overlap
     ethr =  1.00E-02,  avg # of iterations =  3.8

     Threshold (ethr) on eigenvalues was too large:
     Diagonalizing with lowered threshold

     Davidson diagonalization with overlap
     ethr =  1.14E-04,  avg # of iterations =  3.7

     total cpu time spent up to now is        0.7 secs

     total energy              =    -357.21748045 Ry
     estimated scf accuracy    <       0.03426212 Ry

     iteration #  2     ecut=    60.00 Ry     beta= 0.50
     Davidson diagonalization with overlap
     ethr =  1.22E-04,  avg # of iterations =  1.0

     total cpu time spent up to now is        0.9 secs

     total energy              =    -357.21732690 Ry
     estimated scf accuracy    <       0.00654338 Ry

     iteration #  3     ecut=    60.00 Ry     beta= 0.50
     Davidson diagonalization with overlap
     ethr =  2.34E-05,  avg # of iterations =  1.6

     total cpu time spent up to now is        1.0 secs

     total energy              =    -357.21780015 Ry
     estimated scf accuracy    <       0.00012083 Ry

     iteration #  4     ecut=    60.00 Ry     beta= 0.50
     Davidson diagonalization with overlap
     ethr =  4.32E-07,  avg # of iterations =  2.9

     total cpu time spent up to now is        1.2 secs

     total energy              =    -357.21782294 Ry
     estimated scf accuracy    <       0.00000514 Ry

     iteration #  5     ecut=    60.00 Ry     beta= 0.50
     Davidson diagonalization with overlap
     ethr =  1.83E-08,  avg # of iterations =  2.1

     total cpu time spent up to now is        1.4 secs

     End of self-consistent calculation

          k = 0.0000 0.0000 0.0000 (  2637 PWs)   bands (ev):

   -16.0650 -16.0650 -16.0650 -16.0460 -16.0460 -15.8652 -15.8652 -15.8652
   -15.8418 -15.8418  -3.5653   8.3521   8.8125   8.8125   8.8125  11.3416
    11.3416  11.3416

          k = 0.1250 0.1250-0.1250 (  2556 PWs)   bands (ev):

   -16.0666 -16.0666 -16.0577 -16.0162 -16.0162 -15.8528 -15.8528 -15.8435
   -15.8229 -15.8229  -3.3848   6.3640   8.5018   8.5018   9.6152  11.7658
    11.7658  12.1452

          k = 0.2500 0.2500-0.2500 (  2541 PWs)   bands (ev):

   -16.0736 -16.0736 -16.0491 -16.0016 -16.0016 -15.8649 -15.8649 -15.8443
   -15.8114 -15.8114  -2.8623   4.1491   7.9860   7.9860   9.3051  12.3785
    12.3785  14.1451

          k = 0.3750 0.3750-0.3750 (  2530 PWs)   bands (ev):

   -16.0732 -16.0732 -16.0418 -15.9915 -15.9915 -15.8696 -15.8696 -15.8528
   -15.8061 -15.8061  -2.1028   2.3115   7.6177   7.6177   8.9591  12.5511
    12.5511  15.9619

          k =-0.5000-0.5000 0.5000 (  2512 PWs)   bands (ev):

   -16.0728 -16.0728 -16.0360 -15.9855 -15.9855 -15.8710 -15.8710 -15.8616
   -15.7942 -15.7942  -1.6059   1.4470   7.4892   7.4892   8.8336  12.5320
    12.5320  15.9240

          k = 0.2500 0.0000 0.0000 (  2557 PWs)   bands (ev):

   -16.0636 -16.0636 -16.0610 -16.0237 -16.0100 -15.8720 -15.8396 -15.8329
   -15.8329 -15.8240  -3.3236   6.2782   8.0017   8.0017  10.7263  10.7395
    12.4628  12.4628

          k = 0.3750 0.1250-0.1250 (  2544 PWs)   bands (ev):

   -16.0755 -16.0715 -16.0534 -16.0071 -15.9878 -15.8881 -15.8525 -15.8334
   -15.8228 -15.8105  -2.9103   4.6186   7.3732   7.4703  10.6316  11.2698
    13.2573  13.5461

          k = 0.5000 0.2500-0.2500 (  2530 PWs)   bands (ev):

   -16.0841 -16.0721 -16.0392 -15.9907 -15.9758 -15.8978 -15.8663 -15.8495
   -15.8013 -15.7985  -2.2058   2.7941   6.7155   7.1689  10.2962  12.0424
    13.4575  14.3304

          k =-0.3750-0.6250 0.6250 (  2519 PWs)   bands (ev):

   -16.0863 -16.0743 -16.0246 -15.9787 -15.9746 -15.8906 -15.8763 -15.8685
   -15.7899 -15.7890  -1.5107   1.5479   6.2798   7.1625  10.0660  12.3257
    13.2171  15.8311

          k =-0.2500-0.5000 0.5000 (  2527 PWs)   bands (ev):

   -16.0843 -16.0804 -16.0228 -15.9827 -15.9728 -15.8886 -15.8741 -15.8717
   -15.7977 -15.7930  -1.7002   1.8536   6.1536   7.4427  10.0677  12.5603
    12.9297  15.9602

          k =-0.1250-0.3750 0.3750 (  2538 PWs)   bands (ev):

   -16.0834 -16.0765 -16.0405 -16.0005 -15.9806 -15.8827 -15.8686 -15.8487
   -15.8048 -15.8038  -2.4692   3.3748   6.4035   7.9398  10.2628  12.5203
    12.6945  14.3228

          k = 0.0000-0.2500 0.2500 (  2541 PWs)   bands (ev):

   -16.0761 -16.0669 -16.0498 -16.0099 -15.9996 -15.8734 -15.8539 -15.8321
   -15.8196 -15.8102  -3.0882   5.1384   7.1906   8.4511  10.2977  11.8897
    12.0077  13.4143

          k = 0.5000 0.0000 0.0000 (  2525 PWs)   bands (ev):

   -16.0733 -16.0733 -16.0518 -15.9938 -15.9628 -15.9091 -15.8557 -15.8214
   -15.8105 -15.8105  -2.6066   4.0682   6.9052   6.9052   9.8770  11.4145
    14.4450  14.4450

          k = 0.6250 0.1250-0.1250 (  2530 PWs)   bands (ev):

   -16.0821 -16.0752 -16.0422 -15.9820 -15.9474 -15.9321 -15.8739 -15.8415
   -15.7978 -15.7974  -1.9834   2.7902   6.1309   6.5725  10.1137  11.4238
    14.3987  15.0623

          k =-0.2500-0.7500 0.7500 (  2522 PWs)   bands (ev):

   -16.0934 -16.0773 -16.0161 -15.9642 -15.9457 -15.9305 -15.8893 -15.8661
   -15.7897 -15.7823  -1.2052   1.5669   5.3054   6.5566  10.2287  12.8538
    14.1328  14.8585

          k =-0.1250-0.6250 0.6250 (  2534 PWs)   bands (ev):

   -16.0976 -16.0849 -16.0124 -15.9592 -15.9529 -15.9149 -15.9031 -15.8789
   -15.7929 -15.7830  -1.0576   1.3732   4.9103   6.8573  10.3952  13.6468
    14.3340  15.3525

          k = 0.0000-0.5000 0.5000 (  2529 PWs)   bands (ev):

   -16.0891 -16.0854 -16.0161 -15.9824 -15.9581 -15.8999 -15.8800 -15.8740
   -15.7979 -15.7881  -1.7839   2.3773   5.1865   7.3985  10.6626  13.4848
    13.7448  13.9612

          k = 0.7500 0.0000 0.0000 (  2518 PWs)   bands (ev):

   -16.0745 -16.0745 -16.0341 -15.9621 -15.9590 -15.9204 -15.8810 -15.8492
   -15.7963 -15.7963  -1.4421   1.9870   6.1742   6.1742   9.4607  10.4070
    16.5425  16.5425

          k =-0.1250-0.8750 0.8750 (  2524 PWs)   bands (ev):

   -16.0852 -16.0763 -16.0183 -15.9779 -15.9434 -15.9081 -15.9056 -15.8706
   -15.7877 -15.7867  -0.6593   0.9952   5.4720   6.0902   9.7668  10.7613
    16.3764  16.8114

          k = 0.0000-0.7500 0.7500 (  2522 PWs)   bands (ev):

   -16.0967 -16.0818 -16.0074 -15.9571 -15.9259 -15.9202 -15.9187 -15.8822
   -15.7852 -15.7759  -0.3444   0.6839   4.7531   6.3377  10.0017  12.7896
    15.7053  15.9369

          k =-1.0000 0.0000 0.0000 (  2498 PWs)   bands (ev):

   -16.0744 -16.0744 -16.0031 -16.0031 -15.9162 -15.9162 -15.8824 -15.8824
   -15.7795 -15.7795   0.1169   0.1169   5.9223   5.9223   9.6315   9.6316
    17.8889  17.8889

          k = 0.5000 0.2500 0.0000 (  2536 PWs)   bands (ev):

   -16.0833 -16.0766 -16.0414 -15.9952 -15.9689 -15.9076 -15.8666 -15.8424
   -15.8022 -15.8019  -2.3943   3.4722   6.1378   7.2917  11.1561  11.3791
    13.4457  14.1687

          k =-0.3750-0.6250 0.8750 (  2531 PWs)   bands (ev):

   -16.0906 -16.0819 -16.0193 -15.9801 -15.9568 -15.9145 -15.8795 -15.8658
   -15.7959 -15.7887  -1.6345   2.1075   5.4733   6.8468  11.1204  12.1654
    13.6390  14.7803

          k =-0.2500-0.5000 0.7500 (  2526 PWs)   bands (ev):

   -16.0957 -16.0814 -16.0112 -15.9669 -15.9552 -15.9134 -15.8921 -15.8730
   -15.7889 -15.7850  -1.1168   1.3430   5.2907   6.6476  11.0429  12.2228
    14.4122  15.5132

          k =-0.2500-0.7500 1.0000 (  2522 PWs)   bands (ev):

   -16.0835 -16.0820 -16.0202 -15.9632 -15.9529 -15.9252 -15.8896 -15.8622
   -15.7910 -15.7850  -1.2838   1.7896   5.5257   6.1035  10.7006  11.2987
    14.2447  16.4113

          k =-0.1250-0.6250 0.8750 (  2525 PWs)   bands (ev):

   -16.0962 -16.0839 -16.0012 -15.9539 -15.9454 -15.9220 -15.9105 -15.8811
   -15.7860 -15.7795  -0.5575   0.9320   4.9328   5.9237  11.0711  12.8862
    13.8107  15.6352

          k = 0.0000-0.5000 0.7500 (  2529 PWs)   bands (ev):

   -16.0976 -16.0875 -16.0026 -15.9556 -15.9337 -15.9324 -15.9101 -15.8773
   -15.7898 -15.7817  -0.8661   1.2773   4.7921   6.2610  11.3860  13.2042
    13.6816  15.3375

          k =-1.0000 0.2500 0.0000 (  2530 PWs)   bands (ev):

   -16.0857 -16.0857 -15.9924 -15.9924 -15.9254 -15.9254 -15.8956 -15.8956
   -15.7861 -15.7861   0.1571   0.1571   5.4941   5.4941  10.7523  10.7523
    16.1331  16.1331

          k =-1.0000 0.5000 0.0000 (  2520 PWs)   bands (ev):

   -16.0918 -16.0918 -15.9709 -15.9709 -15.9323 -15.9323 -15.8995 -15.8995
   -15.7811 -15.7811   0.1992   0.1992   5.1584   5.1584  12.9229  12.9230
    13.4996  13.4996

     the Fermi energy is     8.7649 ev

!    total energy              =    -357.21782360 Ry
     estimated scf accuracy    <       0.00000034 Ry
     smearing contrib. (-TS)   =      -0.00007976 Ry
     internal energy E=F+TS    =    -357.21774385 Ry

     The total energy is F=E-TS. E is the sum of the following terms:
     one-electron contribution =    -188.70657821 Ry
     hartree contribution      =     112.70175046 Ry
     xc contribution           =     -87.21573901 Ry
     ewald contribution        =    -193.99717709 Ry

     convergence has been achieved in   5 iterations

     Writing output data file ./Ge_out/Ge_scf.save/
 
     init_run     :      0.11s CPU      0.20s WALL (       1 calls)
     electrons    :      0.95s CPU      1.08s WALL (       1 calls)

     Called by init_run:
     wfcinit      :      0.05s CPU      0.09s WALL (       1 calls)
     potinit      :      0.01s CPU      0.02s WALL (       1 calls)
     hinit0       :      0.02s CPU      0.05s WALL (       1 calls)

     Called by electrons:
     c_bands      :      0.75s CPU      0.84s WALL (       6 calls)
     sum_band     :      0.15s CPU      0.15s WALL (       6 calls)
     v_of_rho     :      0.05s CPU      0.05s WALL (       6 calls)
     mix_rho      :      0.00s CPU      0.01s WALL (       6 calls)

     Called by c_bands:
     init_us_2    :      0.02s CPU      0.02s WALL (     104 calls)
     cegterg      :      0.63s CPU      0.67s WALL (      48 calls)

     Called by *egterg:
     cdiaghg      :      0.04s CPU      0.09s WALL (     165 calls)
     h_psi        :      0.56s CPU      0.60s WALL (     181 calls)
     g_psi        :      0.00s CPU      0.01s WALL (     125 calls)

     Called by h_psi:
     h_psi:calbec :      0.02s CPU      0.03s WALL (     181 calls)
     vloc_psi     :      0.52s CPU      0.55s WALL (     181 calls)
     add_vuspsi   :      0.02s CPU      0.02s WALL (     181 calls)

     General routines
     calbec       :      0.02s CPU      0.03s WALL (     181 calls)
     fft          :      0.01s CPU      0.04s WALL (      61 calls)
     ffts         :      0.00s CPU      0.00s WALL (       6 calls)
     fftw         :      0.52s CPU      0.55s WALL (    5416 calls)
 
     Parallel routines
 
     PWSCF        :      1.09s CPU      1.51s WALL

 
   This run was terminated on:  16:51:37  26May2025            

=------------------------------------------------------------------------------=
   JOB DONE.
=------------------------------------------------------------------------------=
