
     Program PWSCF v.6.8 starts on 26May2025 at 14: 6:30 

     This program is part of the open-source Quantum ESPRESSO suite
     for quantum simulation of materials; please cite
         "P. Giannozzi et al., J. Phys.:Condens. Matter 21 395502 (2009);
         "P. Giannozzi et al., J. Phys.:Condens. Matter 29 465901 (2017);
         "P. Giannozzi et al., J. Chem. Phys. 152 154105 (2020);
          URL http://www.quantum-espresso.org", 
     in publications or presentations arising from this work. More details at
     http://www.quantum-espresso.org/quote

     Parallel version (MPI & OpenMP), running on       8 processor cores
     Number of MPI processes:                 8
     Threads/MPI process:                     1

     MPI processes distributed on     1 nodes
     K-points division:     npool     =       4
     R & G space division:  proc/nbgrp/npool/nimage =       2
     187848 MiB available memory on the printing compute node when the environment starts
 
     Reading input from 01_bands.in

     Current dimensions of program PWSCF are:
     Max number of different atomic species (ntypx) = 10
     Max number of k-points (npk) =  40000
     Max angular momentum in pseudopotentials (lmaxx) =  4

     Atomic positions and unit cell read from directory:
     ./Ge_out/Ge_scf.save/
 
     Message from routine setup:
     using ibrav=0 with symmetry is DISCOURAGED, use correct ibrav instead

     Subspace diagonalization in iterative solution of the eigenvalue problem:
     a serial algorithm will be used

 
     Parallelization info
     --------------------
     sticks:   dense  smooth     PW     G-vecs:    dense   smooth      PW
     Min         483     483    147                10089    10089    1607
     Max         484     484    148                10090    10090    1608
     Sum         967     967    295                20179    20179    3215
 
     Using Slab Decomposition
 


     bravais-lattice index     =            0
     lattice parameter (alat)  =      10.8848  a.u.
     unit-cell volume          =     322.4067 (a.u.)^3
     number of atoms/cell      =            2
     number of atomic types    =            1
     number of electrons       =        28.00
     number of Kohn-Sham states=           18
     kinetic-energy cutoff     =      60.0000  Ry
     charge density cutoff     =     240.0000  Ry
     Exchange-correlation= PBE
                           (   1   4   3   4   0   0   0)

     celldm(1)=  10.884822  celldm(2)=   0.000000  celldm(3)=   0.000000
     celldm(4)=   0.000000  celldm(5)=   0.000000  celldm(6)=   0.000000

     crystal axes: (cart. coord. in units of alat)
               a(1) = (   0.000000   0.500000   0.500000 )  
               a(2) = (   0.500000   0.000000   0.500000 )  
               a(3) = (   0.500000   0.500000   0.000000 )  

     reciprocal axes: (cart. coord. in units 2 pi/alat)
               b(1) = ( -1.000000  1.000000  1.000000 )  
               b(2) = (  1.000000 -1.000000  1.000000 )  
               b(3) = (  1.000000  1.000000 -1.000000 )  


     PseudoPot. # 1 for Ge read from file:
     ./Ge.upf
     MD5 check sum: 087fa14d6c89b52166990835c3b338da
     Pseudo is Norm-conserving + core correction, Zval = 14.0
     Generated using ONCVPSP code by D. R. Hamann
     Using radial grid of 1560 points,  6 beta functions with: 
                l(1) =   0
                l(2) =   0
                l(3) =   1
                l(4) =   1
                l(5) =   2
                l(6) =   2

     atomic species   valence    mass     pseudopotential
        Ge            14.00    72.63000     Ge( 1.00)

     48 Sym. Ops., with inversion, found (24 have fractional translation)



   Cartesian axes

     site n.     atom                  positions (alat units)
         1           Ge  tau(   1) = (   0.0000000   0.0000000   0.0000000  )
         2           Ge  tau(   2) = (   0.2500000   0.2500000   0.2500000  )

     number of k points=   141  Gaussian smearing, width (Ry)=  0.0100

     Number of k-points >= 100: set verbosity='high' to print them.

     Dense  grid:    20179 G-vectors     FFT dimensions: (  40,  40,  40)

     Estimated max dynamical RAM per process >       7.28 MB

     Estimated total dynamical RAM >      58.21 MB

     The potential is recalculated from file :
     ./Ge_out/Ge_scf.save/charge-density

     Starting wfcs are   18 randomized atomic wfcs

     Band Structure Calculation
     Davidson diagonalization with overlap

     ethr =  3.57E-09,  avg # of iterations = 19.1

     total cpu time spent up to now is        3.4 secs

     End of band structure calculation

     Number of k-points >= 100: set verbosity='high' to print the bands.

     Writing output data file ./Ge_out/Ge_scf.save/
 
     init_run     :      0.06s CPU      0.08s WALL (       1 calls)
     electrons    :      2.64s CPU      3.15s WALL (       1 calls)

     Called by init_run:
     wfcinit      :      0.00s CPU      0.00s WALL (       1 calls)
     potinit      :      0.01s CPU      0.01s WALL (       1 calls)
     hinit0       :      0.02s CPU      0.02s WALL (       1 calls)

     Called by electrons:
     c_bands      :      2.64s CPU      3.15s WALL (       1 calls)
     v_of_rho     :      0.01s CPU      0.01s WALL (       1 calls)

     Called by c_bands:
     init_us_2    :      0.01s CPU      0.01s WALL (      36 calls)
     cegterg      :      2.27s CPU      2.45s WALL (      41 calls)

     Called by *egterg:
     cdiaghg      :      0.22s CPU      0.22s WALL (     707 calls)
     h_psi        :      1.88s CPU      2.05s WALL (     748 calls)
     g_psi        :      0.03s CPU      0.03s WALL (     671 calls)

     Called by h_psi:
     h_psi:calbec :      0.07s CPU      0.07s WALL (     748 calls)
     vloc_psi     :      1.73s CPU      1.90s WALL (     748 calls)
     add_vuspsi   :      0.06s CPU      0.06s WALL (     748 calls)

     General routines
     calbec       :      0.07s CPU      0.07s WALL (     748 calls)
     fft          :      0.00s CPU      0.00s WALL (      11 calls)
     fftw         :      1.45s CPU      1.59s WALL (   15724 calls)
     davcio       :      0.01s CPU      0.01s WALL (      72 calls)
 
     Parallel routines
 
     PWSCF        :      2.84s CPU      3.52s WALL

 
   This run was terminated on:  14: 6:34  26May2025            

=------------------------------------------------------------------------------=
   JOB DONE.
=------------------------------------------------------------------------------=
