
     Program BANDS v.6.8 starts on 26May2025 at 14: 6:34 

     This program is part of the open-source Quantum ESPRESSO suite
     for quantum simulation of materials; please cite
         "P. Giannozzi et al., J. Phys.:Condens. Matter 21 395502 (2009);
         "P. Giannozzi et al., J. Phys.:Condens. Matter 29 465901 (2017);
         "P. Giannozzi et al., J. Chem. Phys. 152 154105 (2020);
          URL http://www.quantum-espresso.org", 
     in publications or presentations arising from this work. More details at
     http://www.quantum-espresso.org/quote

     Parallel version (MPI & OpenMP), running on       1 processor cores
     Number of MPI processes:                 1
     Threads/MPI process:                     1

     MPI processes distributed on     1 nodes
     187858 MiB available memory on the printing compute node when the environment starts
 

     Reading xml data from directory:

     ./Ge_out/Ge_scf.save/

     IMPORTANT: XC functional enforced from input :
     Exchange-correlation= PBE
                           (   1   4   3   4   0   0   0)
     Any further DFT definition will be discarded
     Please, verify this is what you really want

 
     G-vector sticks info
     --------------------
     sticks:   dense  smooth     PW     G-vecs:    dense   smooth      PW
     Sum         967     967    295                20179    20179    3215
 
     Using Slab Decomposition
 
     Reading collected, re-writing distributed wavefunctions
     high-symmetry point:  0.0000 0.0000 0.0000   x coordinate   0.0000
     high-symmetry point:  0.0000 1.0000 0.0000   x coordinate   1.0000
     high-symmetry point:  0.2500 1.0000 0.2500   x coordinate   1.3536
     high-symmetry point:  0.5000 0.5000 0.5000   x coordinate   1.9659
     high-symmetry point:  0.0000 0.0000 0.0000   x coordinate   2.8320
     high-symmetry point:  0.7500 0.7500 0.0000   x coordinate   3.8926
     high-symmetry point:  0.5000 1.0000 0.0000   x coordinate   4.2462
     high-symmetry point:  0.0000 1.0000 0.0000   x coordinate   4.7462

     Plottable bands (eV) written to file ge_bands.dat.gnu
     Bands written to file ge_bands.dat

 **************************************************************************

                    xk=(   0.00000,   0.00000,   0.00000  )

     point group O_h (m-3m) 
     there are 10 classes
     the character table:

       E     8C3   3C2   6C4   6C2'  i     8S6   3s_h  6S4   6s_d 
A_1g   1.00  1.00  1.00  1.00  1.00  1.00  1.00  1.00  1.00  1.00
A_2g   1.00  1.00  1.00 -1.00 -1.00  1.00  1.00  1.00 -1.00 -1.00
E_g    2.00 -1.00  2.00  0.00  0.00  2.00 -1.00  2.00  0.00  0.00
T_1g   3.00  0.00 -1.00  1.00 -1.00  3.00  0.00 -1.00  1.00 -1.00
T_2g   3.00  0.00 -1.00 -1.00  1.00  3.00  0.00 -1.00 -1.00  1.00
A_1u   1.00  1.00  1.00  1.00  1.00 -1.00 -1.00 -1.00 -1.00 -1.00
A_2u   1.00  1.00  1.00 -1.00 -1.00 -1.00 -1.00 -1.00  1.00  1.00
E_u    2.00 -1.00  2.00  0.00  0.00 -2.00  1.00 -2.00  0.00  0.00
T_1u   3.00  0.00 -1.00  1.00 -1.00 -3.00  0.00  1.00 -1.00  1.00
T_2u   3.00  0.00 -1.00 -1.00  1.00 -3.00  0.00  1.00  1.00 -1.00

     the symmetry operations in each class and the name of the first element:

     E        1
                                                                 
     8C3     17   19   20   18   24   21   22   23
                                                                 
     3C2      2    4    3
                                                                 
     6C4      7    8   15   16   12   11
                                                                 
     6C2'     5    6   14   13   10    9
                                                                 
     i       25
                                                                 
     8S6     41   43   44   42   48   45   46   47
                                                                 
     3s_h    26   28   27
                                                                 
     6S4     31   32   39   40   36   35
                                                                 
     6s_d    29   30   38   37   34   33
                                                                 

     Band symmetry, O_h (m-3m)  point group:

     e(  1 -  3) =    -16.06719  eV     3   --> T_2g G_25' G_5+
     e(  4 -  5) =    -16.04807  eV     2   --> E_u  G_12' G_3-
     e(  6 -  8) =    -15.86732  eV     3   --> T_1u G_15  G_4-
     e(  9 - 10) =    -15.84387  eV     2   --> E_g  G_12  G_3+
     e( 11 - 11) =     -3.56654  eV     1   --> A_1g G_1   G_1+
     e( 12 - 12) =      8.35055  eV     1   --> A_2u G_2'  G_2-
     e( 13 - 15) =      8.81102  eV     3   --> T_2g G_25' G_5+
     e( 16 - 18) =     11.34058  eV     3   --> T_1u G_15  G_4-

 **************************************************************************

 **************************************************************************

                    xk=(   0.00000,   0.05000,   0.00000  )

     point group C_4v (4mm) 
     there are  5 classes
     the character table:

       E     2C4   C2    2s_v  2s_d 
A_1    1.00  1.00  1.00  1.00  1.00
A_2    1.00  1.00  1.00 -1.00 -1.00
B_1    1.00 -1.00  1.00  1.00 -1.00
B_2    1.00 -1.00  1.00 -1.00  1.00
E      2.00  0.00 -2.00  0.00  0.00

     the symmetry operations in each class and the name of the first element:

     E        1
                                                                 
     2C4      3    4
                                                                 
     C2       2
                                                                 
     2s_v     5    6
                                                                 
     2s_d     7    8
                                                                 

     Band symmetry, C_4v (4mm)  point group:

     e(  1 -  1) =    -16.06749  eV     1   --> B_2  G_4 D_2'  
     e(  2 -  3) =    -16.06434  eV     2   --> E    G_5 D_5   
     e(  4 -  4) =    -16.03969  eV     1   --> A_2  G_2 D_1'  
     e(  5 -  5) =    -16.03001  eV     1   --> B_2  G_4 D_2'  
     e(  6 -  6) =    -15.85564  eV     1   --> A_1  G_1 D_1   
     e(  7 -  8) =    -15.84603  eV     2   --> E    G_5 D_5   
     e(  9 -  9) =    -15.84378  eV     1   --> B_1  G_3 D_2   
     e( 10 - 10) =    -15.83289  eV     1   --> A_1  G_1 D_1   
     e( 11 - 11) =     -3.55684  eV     1   --> A_1  G_1 D_1   
     e( 12 - 12) =      8.06616  eV     1   --> B_2  G_4 D_2'  
     e( 13 - 14) =      8.76428  eV     2   --> E    G_5 D_5   
     e( 15 - 15) =      9.09244  eV     1   --> B_2  G_4 D_2'  
     e( 16 - 16) =     11.30943  eV     1   --> A_1  G_1 D_1   
     e( 17 - 18) =     11.40287  eV     2   --> E    G_5 D_5   

 **************************************************************************

 **************************************************************************

                    xk=(   0.00000,   0.10000,   0.00000  )

     Band symmetry, C_4v (4mm)  point group:

     e(  1 -  1) =    -16.06446  eV     1   --> B_2  G_4 D_2'  
     e(  2 -  3) =    -16.05867  eV     2   --> E    G_5 D_5   
     e(  4 -  4) =    -16.03679  eV     1   --> A_2  G_2 D_1'  
     e(  5 -  5) =    -16.02778  eV     1   --> B_2  G_4 D_2'  
     e(  6 -  6) =    -15.85691  eV     1   --> A_1  G_1 D_1   
     e(  7 -  7) =    -15.84196  eV     1   --> B_1  G_3 D_2   
     e(  8 -  9) =    -15.84027  eV     2   --> E    G_5 D_5   
     e( 10 - 10) =    -15.82992  eV     1   --> A_1  G_1 D_1   
     e( 11 - 11) =     -3.52777  eV     1   --> A_1  G_1 D_1   
     e( 12 - 12) =      7.63161  eV     1   --> B_2  G_4 D_2'  
     e( 13 - 14) =      8.63548  eV     2   --> E    G_5 D_5   
     e( 15 - 15) =      9.51705  eV     1   --> B_2  G_4 D_2'  
     e( 16 - 16) =     11.21672  eV     1   --> A_1  G_1 D_1   
     e( 17 - 18) =     11.57027  eV     2   --> E    G_5 D_5   

 **************************************************************************

 **************************************************************************

                    xk=(   0.00000,   0.15000,   0.00000  )

     Band symmetry, C_4v (4mm)  point group:

     e(  1 -  1) =    -16.06636  eV     1   --> B_2  G_4 D_2'  
     e(  2 -  3) =    -16.06003  eV     2   --> E    G_5 D_5   
     e(  4 -  4) =    -16.03584  eV     1   --> A_2  G_2 D_1'  
     e(  5 -  5) =    -16.02408  eV     1   --> B_2  G_4 D_2'  
     e(  6 -  6) =    -15.86375  eV     1   --> A_1  G_1 D_1   
     e(  7 -  7) =    -15.84334  eV     1   --> B_1  G_3 D_2   
     e(  8 -  9) =    -15.83994  eV     2   --> E    G_5 D_5   
     e( 10 - 10) =    -15.82746  eV     1   --> A_1  G_1 D_1   
     e( 11 - 11) =     -3.47936  eV     1   --> A_1  G_1 D_1   
     e( 12 - 12) =      7.18118  eV     1   --> B_2  G_4 D_2'  
     e( 13 - 14) =      8.44979  eV     2   --> E    G_5 D_5   
     e( 15 - 15) =      9.94564  eV     1   --> B_2  G_4 D_2'  
     e( 16 - 16) =     11.07740  eV     1   --> A_1  G_1 D_1   
     e( 17 - 18) =     11.81732  eV     2   --> E    G_5 D_5   

 **************************************************************************

 **************************************************************************

                    xk=(   0.00000,   0.20000,   0.00000  )

     Band symmetry, C_4v (4mm)  point group:

     e(  1 -  2) =    -16.06337  eV     2   --> E    G_5 D_5   
     e(  3 -  3) =    -16.06173  eV     1   --> B_2  G_4 D_2'  
     e(  4 -  4) =    -16.02795  eV     1   --> A_2  G_2 D_1'  
     e(  5 -  5) =    -16.01818  eV     1   --> B_2  G_4 D_2'  
     e(  6 -  6) =    -15.86558  eV     1   --> A_1  G_1 D_1   
     e(  7 -  7) =    -15.83918  eV     1   --> B_1  G_3 D_2   
     e(  8 -  9) =    -15.83717  eV     2   --> E    G_5 D_5   
     e( 10 - 10) =    -15.82717  eV     1   --> A_1  G_1 D_1   
     e( 11 - 11) =     -3.41168  eV     1   --> A_1  G_1 D_1   
     e( 12 - 12) =      6.72856  eV     1   --> B_2  G_4 D_2'  
     e( 13 - 14) =      8.23223  eV     2   --> E    G_5 D_5   
     e( 15 - 15) =     10.35795  eV     1   --> B_2  G_4 D_2'  
     e( 16 - 16) =     10.90945  eV     1   --> A_1  G_1 D_1   
     e( 17 - 18) =     12.12044  eV     2   --> E    G_5 D_5   

 **************************************************************************

 **************************************************************************

                    xk=(   0.00000,   0.25000,   0.00000  )

     Band symmetry, C_4v (4mm)  point group:

     e(  1 -  2) =    -16.06577  eV     2   --> E    G_5 D_5   
     e(  3 -  3) =    -16.06318  eV     1   --> B_2  G_4 D_2'  
     e(  4 -  4) =    -16.02581  eV     1   --> A_2  G_2 D_1'  
     e(  5 -  5) =    -16.01212  eV     1   --> B_2  G_4 D_2'  
     e(  6 -  6) =    -15.87413  eV     1   --> A_1  G_1 D_1   
     e(  7 -  7) =    -15.84171  eV     1   --> B_1  G_3 D_2   
     e(  8 -  9) =    -15.83504  eV     2   --> E    G_5 D_5   
     e( 10 - 10) =    -15.82610  eV     1   --> A_1  G_1 D_1   
     e( 11 - 11) =     -3.32481  eV     1   --> A_1  G_1 D_1   
     e( 12 - 12) =      6.27666  eV     1   --> B_2  G_4 D_2'  
     e( 13 - 14) =      8.00038  eV     2   --> E    G_5 D_5   
     e( 15 - 15) =     10.72577  eV     1   --> A_1  G_1 D_1   
     e( 16 - 16) =     10.73806  eV     1   --> B_2  G_4 D_2'  
     e( 17 - 18) =     12.46160  eV     2   --> E    G_5 D_5   

 **************************************************************************

 **************************************************************************

                    xk=(   0.00000,   0.30000,   0.00000  )

     Band symmetry, C_4v (4mm)  point group:

     e(  1 -  2) =    -16.06850  eV     2   --> E    G_5 D_5   
     e(  3 -  3) =    -16.06355  eV     1   --> B_2  G_4 D_2'  
     e(  4 -  4) =    -16.01859  eV     1   --> A_2  G_2 D_1'  
     e(  5 -  5) =    -16.00472  eV     1   --> B_2  G_4 D_2'  
     e(  6 -  6) =    -15.87951  eV     1   --> A_1  G_1 D_1   
     e(  7 -  7) =    -15.84465  eV     1   --> B_1  G_3 D_2   
     e(  8 -  9) =    -15.83309  eV     2   --> E    G_5 D_5   
     e( 10 - 10) =    -15.82417  eV     1   --> A_1  G_1 D_1   
     e( 11 - 11) =     -3.21887  eV     1   --> A_1  G_1 D_1   
     e( 12 - 12) =      5.82719  eV     1   --> B_2  G_4 D_2'  
     e( 13 - 14) =      7.76528  eV     2   --> E    G_5 D_5   
     e( 15 - 15) =     10.53905  eV     1   --> A_1  G_1 D_1   
     e( 16 - 16) =     11.06609  eV     1   --> B_2  G_4 D_2'  
     e( 17 - 18) =     12.82922  eV     2   --> E    G_5 D_5   

 **************************************************************************

 **************************************************************************

                    xk=(   0.00000,   0.35000,   0.00000  )

     Band symmetry, C_4v (4mm)  point group:

     e(  1 -  2) =    -16.07407  eV     2   --> E    G_5 D_5   
     e(  3 -  3) =    -16.06327  eV     1   --> B_2  G_4 D_2'  
     e(  4 -  4) =    -16.01515  eV     1   --> A_2  G_2 D_1'  
     e(  5 -  5) =    -15.99475  eV     1   --> B_2  G_4 D_2'  
     e(  6 -  6) =    -15.88726  eV     1   --> A_1  G_1 D_1   
     e(  7 -  7) =    -15.85580  eV     1   --> B_1  G_3 D_2   
     e(  8 -  9) =    -15.83010  eV     2   --> E    G_5 D_5   
     e( 10 - 10) =    -15.82267  eV     1   --> A_1  G_1 D_1   
     e( 11 - 11) =     -3.09402  eV     1   --> A_1  G_1 D_1   
     e( 12 - 12) =      5.38093  eV     1   --> B_2  G_4 D_2'  
     e( 13 - 14) =      7.53395  eV     2   --> E    G_5 D_5   
     e( 15 - 15) =     10.35538  eV     1   --> A_1  G_1 D_1   
     e( 16 - 16) =     11.31625  eV     1   --> B_2  G_4 D_2'  
     e( 17 - 18) =     13.21563  eV     2   --> E    G_5 D_5   

 **************************************************************************

 **************************************************************************

                    xk=(   0.00000,   0.40000,   0.00000  )

     Band symmetry, C_4v (4mm)  point group:

     e(  1 -  2) =    -16.07734  eV     2   --> E    G_5 D_5   
     e(  3 -  3) =    -16.06316  eV     1   --> B_2  G_4 D_2'  
     e(  4 -  4) =    -16.01170  eV     1   --> A_2  G_2 D_1'  
     e(  5 -  5) =    -15.98698  eV     1   --> B_2  G_4 D_2'  
     e(  6 -  6) =    -15.89682  eV     1   --> A_1  G_1 D_1   
     e(  7 -  7) =    -15.86060  eV     1   --> B_1  G_3 D_2   
     e(  8 -  9) =    -15.82862  eV     2   --> E    G_5 D_5   
     e( 10 - 10) =    -15.82440  eV     1   --> A_1  G_1 D_1   
     e( 11 - 11) =     -2.95044  eV     1   --> A_1  G_1 D_1   
     e( 12 - 12) =      4.93836  eV     1   --> B_2  G_4 D_2'  
     e( 13 - 14) =      7.31119  eV     2   --> E    G_5 D_5   
     e( 15 - 15) =     10.18119  eV     1   --> A_1  G_1 D_1   
     e( 16 - 16) =     11.46225  eV     1   --> B_2  G_4 D_2'  
     e( 17 - 18) =     13.61596  eV     2   --> E    G_5 D_5   

 **************************************************************************

 **************************************************************************

                    xk=(   0.00000,   0.45000,   0.00000  )

     Band symmetry, C_4v (4mm)  point group:

     e(  1 -  2) =    -16.07654  eV     2   --> E    G_5 D_5   
     e(  3 -  3) =    -16.05827  eV     1   --> B_2  G_4 D_2'  
     e(  4 -  4) =    -16.00192  eV     1   --> A_2  G_2 D_1'  
     e(  5 -  5) =    -15.97542  eV     1   --> B_2  G_4 D_2'  
     e(  6 -  6) =    -15.90202  eV     1   --> A_1  G_1 D_1   
     e(  7 -  7) =    -15.85986  eV     1   --> B_1  G_3 D_2   
     e(  8 -  8) =    -15.82331  eV     1   --> A_1  G_1 D_1   
     e(  9 - 10) =    -15.82116  eV     2   --> E    G_5 D_5   
     e( 11 - 11) =     -2.78831  eV     1   --> A_1  G_1 D_1   
     e( 12 - 12) =      4.50016  eV     1   --> B_2  G_4 D_2'  
     e( 13 - 14) =      7.10062  eV     2   --> E    G_5 D_5   
     e( 15 - 15) =     10.02103  eV     1   --> A_1  G_1 D_1   
     e( 16 - 16) =     11.49125  eV     1   --> B_2  G_4 D_2'  
     e( 17 - 18) =     14.02651  eV     2   --> E    G_5 D_5   

 **************************************************************************

 **************************************************************************

                    xk=(   0.00000,   0.50000,   0.00000  )

     Band symmetry, C_4v (4mm)  point group:

     e(  1 -  2) =    -16.07551  eV     2   --> E    G_5 D_5   
     e(  3 -  3) =    -16.05393  eV     1   --> B_2  G_4 D_2'  
     e(  4 -  4) =    -15.99594  eV     1   --> A_2  G_2 D_1'  
     e(  5 -  5) =    -15.96491  eV     1   --> B_2  G_4 D_2'  
     e(  6 -  6) =    -15.91125  eV     1   --> A_1  G_1 D_1   
     e(  7 -  7) =    -15.85777  eV     1   --> B_1  G_3 D_2   
     e(  8 -  8) =    -15.82353  eV     1   --> A_1  G_1 D_1   
     e(  9 - 10) =    -15.81262  eV     2   --> E    G_5 D_5   
     e( 11 - 11) =     -2.60790  eV     1   --> A_1  G_1 D_1   
     e( 12 - 12) =      4.06669  eV     1   --> B_2  G_4 D_2'  
     e( 13 - 14) =      6.90400  eV     2   --> E    G_5 D_5   
     e( 15 - 15) =      9.87696  eV     1   --> A_1  G_1 D_1   
     e( 16 - 16) =     11.41380  eV     1   --> B_2  G_4 D_2'  
     e( 17 - 18) =     14.44377  eV     2   --> E    G_5 D_5   

 **************************************************************************

 **************************************************************************

                    xk=(   0.00000,   0.55000,   0.00000  )

     Band symmetry, C_4v (4mm)  point group:

     e(  1 -  2) =    -16.07796  eV     2   --> E    G_5 D_5   
     e(  3 -  3) =    -16.05131  eV     1   --> B_2  G_4 D_2'  
     e(  4 -  4) =    -15.99050  eV     1   --> A_2  G_2 D_1'  
     e(  5 -  5) =    -15.95592  eV     1   --> B_2  G_4 D_2'  
     e(  6 -  6) =    -15.92118  eV     1   --> A_1  G_1 D_1   
     e(  7 -  7) =    -15.86359  eV     1   --> B_1  G_3 D_2   
     e(  8 -  8) =    -15.82649  eV     1   --> A_1  G_1 D_1   
     e(  9 - 10) =    -15.80908  eV     2   --> E    G_5 D_5   
     e( 11 - 11) =     -2.40952  eV     1   --> A_1  G_1 D_1   
     e( 12 - 12) =      3.63805  eV     1   --> B_2  G_4 D_2'  
     e( 13 - 14) =      6.72263  eV     2   --> E    G_5 D_5   
     e( 15 - 15) =      9.75136  eV     1   --> A_1  G_1 D_1   
     e( 16 - 16) =     11.25958  eV     1   --> B_2  G_4 D_2'  
     e( 17 - 18) =     14.86507  eV     2   --> E    G_5 D_5   

 **************************************************************************

 **************************************************************************

                    xk=(   0.00000,   0.60000,   0.00000  )

     Band symmetry, C_4v (4mm)  point group:

     e(  1 -  2) =    -16.07704  eV     2   --> E    G_5 D_5   
     e(  3 -  3) =    -16.04980  eV     1   --> B_2  G_4 D_2'  
     e(  4 -  4) =    -15.98468  eV     1   --> A_2  G_2 D_1'  
     e(  5 -  5) =    -15.95137  eV     1   --> B_2  G_4 D_2'  
     e(  6 -  6) =    -15.93156  eV     1   --> A_1  G_1 D_1   
     e(  7 -  7) =    -15.86847  eV     1   --> B_1  G_3 D_2   
     e(  8 -  8) =    -15.83157  eV     1   --> A_1  G_1 D_1   
     e(  9 - 10) =    -15.80595  eV     2   --> E    G_5 D_5   
     e( 11 - 11) =     -2.19348  eV     1   --> A_1  G_1 D_1   
     e( 12 - 12) =      3.21497  eV     1   --> B_2  G_4 D_2'  
     e( 13 - 14) =      6.55812  eV     2   --> E    G_5 D_5   
     e( 15 - 15) =      9.64587  eV     1   --> A_1  G_1 D_1   
     e( 16 - 16) =     11.05989  eV     1   --> B_2  G_4 D_2'  
     e( 17 - 18) =     15.28849  eV     2   --> E    G_5 D_5   

 **************************************************************************

 **************************************************************************

                    xk=(   0.00000,   0.65000,   0.00000  )

     Band symmetry, C_4v (4mm)  point group:

     e(  1 -  2) =    -16.07509  eV     2   --> E    G_5 D_5   
     e(  3 -  3) =    -16.04564  eV     1   --> B_2  G_4 D_2'  
     e(  4 -  4) =    -15.97422  eV     1   --> A_2  G_2 D_1'  
     e(  5 -  5) =    -15.94179  eV     1   --> B_2  G_4 D_2'  
     e(  6 -  6) =    -15.93834  eV     1   --> A_1  G_1 D_1   
     e(  7 -  7) =    -15.87233  eV     1   --> B_1  G_3 D_2   
     e(  8 -  8) =    -15.83352  eV     1   --> A_1  G_1 D_1   
     e(  9 - 10) =    -15.79687  eV     2   --> E    G_5 D_5   
     e( 11 - 11) =     -1.96012  eV     1   --> A_1  G_1 D_1   
     e( 12 - 12) =      2.79809  eV     1   --> B_2  G_4 D_2'  
     e( 13 - 14) =      6.41121  eV     2   --> E    G_5 D_5   
     e( 15 - 15) =      9.56226  eV     1   --> A_1  G_1 D_1   
     e( 16 - 16) =     10.84128  eV     1   --> B_2  G_4 D_2'  
     e( 17 - 18) =     15.71318  eV     2   --> E    G_5 D_5   

 **************************************************************************

 **************************************************************************

                    xk=(   0.00000,   0.70000,   0.00000  )

     Band symmetry, C_4v (4mm)  point group:

     e(  1 -  2) =    -16.07798  eV     2   --> E    G_5 D_5   
     e(  3 -  3) =    -16.03901  eV     1   --> B_2  G_4 D_2'  
     e(  4 -  4) =    -15.96786  eV     1   --> A_2  G_2 D_1'  
     e(  5 -  5) =    -15.94860  eV     1   --> A_1  G_1 D_1   
     e(  6 -  6) =    -15.92912  eV     1   --> B_2  G_4 D_2'  
     e(  7 -  7) =    -15.87924  eV     1   --> B_1  G_3 D_2   
     e(  8 -  8) =    -15.83882  eV     1   --> A_1  G_1 D_1   
     e(  9 - 10) =    -15.79572  eV     2   --> E    G_5 D_5   
     e( 11 - 11) =     -1.70993  eV     1   --> A_1  G_1 D_1   
     e( 12 - 12) =      2.38809  eV     1   --> B_2  G_4 D_2'  
     e( 13 - 14) =      6.28261  eV     2   --> E    G_5 D_5   
     e( 15 - 15) =      9.50032  eV     1   --> A_1  G_1 D_1   
     e( 16 - 16) =     10.62040  eV     1   --> B_2  G_4 D_2'  
     e( 17 - 18) =     16.13185  eV     2   --> E    G_5 D_5   

 **************************************************************************

 **************************************************************************

                    xk=(   0.00000,   0.75000,   0.00000  )

     Band symmetry, C_4v (4mm)  point group:

     e(  1 -  2) =    -16.07670  eV     2   --> E    G_5 D_5   
     e(  3 -  3) =    -16.03625  eV     1   --> B_2  G_4 D_2'  
     e(  4 -  4) =    -15.96421  eV     1   --> A_1  G_1 D_1   
     e(  5 -  5) =    -15.96117  eV     1   --> A_2  G_2 D_1'  
     e(  6 -  6) =    -15.92253  eV     1   --> B_2  G_4 D_2'  
     e(  7 -  7) =    -15.88313  eV     1   --> B_1  G_3 D_2   
     e(  8 -  8) =    -15.85132  eV     1   --> A_1  G_1 D_1   
     e(  9 - 10) =    -15.79848  eV     2   --> E    G_5 D_5   
     e( 11 - 11) =     -1.44343  eV     1   --> A_1  G_1 D_1   
     e( 12 - 12) =      1.98551  eV     1   --> B_2  G_4 D_2'  
     e( 13 - 14) =      6.17300  eV     2   --> E    G_5 D_5   
     e( 15 - 15) =      9.46079  eV     1   --> A_1  G_1 D_1   
     e( 16 - 16) =     10.40701  eV     1   --> B_2  G_4 D_2'  
     e( 17 - 18) =     16.54129  eV     2   --> E    G_5 D_5   

 **************************************************************************

 **************************************************************************

                    xk=(   0.00000,   0.80000,   0.00000  )

     Band symmetry, C_4v (4mm)  point group:

     e(  1 -  2) =    -16.07882  eV     2   --> E    G_5 D_5   
     e(  3 -  3) =    -16.03172  eV     1   --> B_2  G_4 D_2'  
     e(  4 -  4) =    -15.97389  eV     1   --> A_1  G_1 D_1   
     e(  5 -  5) =    -15.95330  eV     1   --> A_2  G_2 D_1'  
     e(  6 -  6) =    -15.91373  eV     1   --> B_2  G_4 D_2'  
     e(  7 -  7) =    -15.89062  eV     1   --> B_1  G_3 D_2   
     e(  8 -  8) =    -15.85782  eV     1   --> A_1  G_1 D_1   
     e(  9 - 10) =    -15.79580  eV     2   --> E    G_5 D_5   
     e( 11 - 11) =     -1.16098  eV     1   --> A_1  G_1 D_1   
     e( 12 - 12) =      1.59136  eV     1   --> B_2  G_4 D_2'  
     e( 13 - 14) =      6.08270  eV     2   --> E    G_5 D_5   
     e( 15 - 15) =      9.44570  eV     1   --> A_1  G_1 D_1   
     e( 16 - 16) =     10.20903  eV     1   --> B_2  G_4 D_2'  
     e( 17 - 18) =     16.93397  eV     2   --> E    G_5 D_5   

 **************************************************************************

 **************************************************************************

                    xk=(   0.00000,   0.85000,   0.00000  )

     Band symmetry, C_4v (4mm)  point group:

     e(  1 -  2) =    -16.07897  eV     2   --> E    G_5 D_5   
     e(  3 -  3) =    -16.02282  eV     1   --> B_2  G_4 D_2'  
     e(  4 -  4) =    -15.97843  eV     1   --> A_1  G_1 D_1   
     e(  5 -  5) =    -15.94426  eV     1   --> A_2  G_2 D_1'  
     e(  6 -  6) =    -15.90466  eV     1   --> B_2  G_4 D_2'  
     e(  7 -  7) =    -15.89642  eV     1   --> B_1  G_3 D_2   
     e(  8 -  8) =    -15.86106  eV     1   --> A_1  G_1 D_1   
     e(  9 - 10) =    -15.79056  eV     2   --> E    G_5 D_5   
     e( 11 - 11) =     -0.86317  eV     1   --> A_1  G_1 D_1   
     e( 12 - 12) =      1.20656  eV     1   --> B_2  G_4 D_2'  
     e( 13 - 14) =      6.01221  eV     2   --> E    G_5 D_5   
     e( 15 - 15) =      9.45558  eV     1   --> A_1  G_1 D_1   
     e( 16 - 16) =     10.03083  eV     1   --> B_2  G_4 D_2'  
     e( 17 - 18) =     17.29433  eV     2   --> E    G_5 D_5   

 **************************************************************************

 **************************************************************************

                    xk=(   0.00000,   0.90000,   0.00000  )

     Band symmetry, C_4v (4mm)  point group:

     e(  1 -  2) =    -16.07987  eV     2   --> E    G_5 D_5   
     e(  3 -  3) =    -16.01853  eV     1   --> B_2  G_4 D_2'  
     e(  4 -  4) =    -15.98764  eV     1   --> A_1  G_1 D_1   
     e(  5 -  5) =    -15.93678  eV     1   --> A_2  G_2 D_1'  
     e(  6 -  6) =    -15.90409  eV     1   --> B_1  G_3 D_2   
     e(  7 -  7) =    -15.90022  eV     1   --> B_2  G_4 D_2'  
     e(  8 -  8) =    -15.86854  eV     1   --> A_1  G_1 D_1   
     e(  9 - 10) =    -15.78961  eV     2   --> E    G_5 D_5   
     e( 11 - 11) =     -0.55073  eV     1   --> A_1  G_1 D_1   
     e( 12 - 12) =      0.83169  eV     1   --> B_2  G_4 D_2'  
     e( 13 - 14) =      5.96165  eV     2   --> E    G_5 D_5   
     e( 15 - 15) =      9.48938  eV     1   --> A_1  G_1 D_1   
     e( 16 - 16) =      9.87365  eV     1   --> B_2  G_4 D_2'  
     e( 17 - 18) =     17.59813  eV     2   --> E    G_5 D_5   

 **************************************************************************

 **************************************************************************

                    xk=(   0.00000,   0.95000,   0.00000  )

     Band symmetry, C_4v (4mm)  point group:

     e(  1 -  2) =    -16.07628  eV     2   --> E    G_5 D_5   
     e(  3 -  3) =    -16.01306  eV     1   --> B_2  G_4 D_2'  
     e(  4 -  4) =    -15.99668  eV     1   --> A_1  G_1 D_1   
     e(  5 -  5) =    -15.92591  eV     1   --> A_2  G_2 D_1'  
     e(  6 -  6) =    -15.91070  eV     1   --> B_1  G_3 D_2   
     e(  7 -  7) =    -15.89283  eV     1   --> B_2  G_4 D_2'  
     e(  8 -  8) =    -15.87627  eV     1   --> A_1  G_1 D_1   
     e(  9 - 10) =    -15.78170  eV     2   --> E    G_5 D_5   
     e( 11 - 11) =     -0.22423  eV     1   --> A_1  G_1 D_1   
     e( 12 - 12) =      0.46775  eV     1   --> B_2  G_4 D_2'  
     e( 13 - 14) =      5.93128  eV     2   --> E    G_5 D_5   
     e( 15 - 15) =      9.54807  eV     1   --> A_1  G_1 D_1   
     e( 16 - 16) =      9.74026  eV     1   --> B_2  G_4 D_2'  
     e( 17 - 18) =     17.81073  eV     2   --> E    G_5 D_5   

 **************************************************************************

 **************************************************************************

                    xk=(   0.00000,   1.00000,   0.00000  )

     zone border point and non-symmorphic group 
     symmetry decomposition not available

 **************************************************************************

 **************************************************************************

                    xk=(   0.01250,   1.00000,   0.01250  )

     zone border point and non-symmorphic group 
     symmetry decomposition not available

 **************************************************************************

 **************************************************************************

                    xk=(   0.02500,   1.00000,   0.02500  )

     zone border point and non-symmorphic group 
     symmetry decomposition not available

 **************************************************************************

 **************************************************************************

                    xk=(   0.03750,   1.00000,   0.03750  )

     zone border point and non-symmorphic group 
     symmetry decomposition not available

 **************************************************************************

 **************************************************************************

                    xk=(   0.05000,   1.00000,   0.05000  )

     zone border point and non-symmorphic group 
     symmetry decomposition not available

 **************************************************************************

 **************************************************************************

                    xk=(   0.06250,   1.00000,   0.06250  )

     zone border point and non-symmorphic group 
     symmetry decomposition not available

 **************************************************************************

 **************************************************************************

                    xk=(   0.07500,   1.00000,   0.07500  )

     zone border point and non-symmorphic group 
     symmetry decomposition not available

 **************************************************************************

 **************************************************************************

                    xk=(   0.08750,   1.00000,   0.08750  )

     zone border point and non-symmorphic group 
     symmetry decomposition not available

 **************************************************************************

 **************************************************************************

                    xk=(   0.10000,   1.00000,   0.10000  )

     zone border point and non-symmorphic group 
     symmetry decomposition not available

 **************************************************************************

 **************************************************************************

                    xk=(   0.11250,   1.00000,   0.11250  )

     zone border point and non-symmorphic group 
     symmetry decomposition not available

 **************************************************************************

 **************************************************************************

                    xk=(   0.12500,   1.00000,   0.12500  )

     zone border point and non-symmorphic group 
     symmetry decomposition not available

 **************************************************************************

 **************************************************************************

                    xk=(   0.13750,   1.00000,   0.13750  )

     zone border point and non-symmorphic group 
     symmetry decomposition not available

 **************************************************************************

 **************************************************************************

                    xk=(   0.15000,   1.00000,   0.15000  )

     zone border point and non-symmorphic group 
     symmetry decomposition not available

 **************************************************************************

 **************************************************************************

                    xk=(   0.16250,   1.00000,   0.16250  )

     zone border point and non-symmorphic group 
     symmetry decomposition not available

 **************************************************************************

 **************************************************************************

                    xk=(   0.17500,   1.00000,   0.17500  )

     zone border point and non-symmorphic group 
     symmetry decomposition not available

 **************************************************************************

 **************************************************************************

                    xk=(   0.18750,   1.00000,   0.18750  )

     zone border point and non-symmorphic group 
     symmetry decomposition not available

 **************************************************************************

 **************************************************************************

                    xk=(   0.20000,   1.00000,   0.20000  )

     zone border point and non-symmorphic group 
     symmetry decomposition not available

 **************************************************************************

 **************************************************************************

                    xk=(   0.21250,   1.00000,   0.21250  )

     zone border point and non-symmorphic group 
     symmetry decomposition not available

 **************************************************************************

 **************************************************************************

                    xk=(   0.22500,   1.00000,   0.22500  )

     zone border point and non-symmorphic group 
     symmetry decomposition not available

 **************************************************************************

 **************************************************************************

                    xk=(   0.23750,   1.00000,   0.23750  )

     zone border point and non-symmorphic group 
     symmetry decomposition not available

 **************************************************************************

 **************************************************************************

                    xk=(   0.25000,   1.00000,   0.25000  )

     zone border point and non-symmorphic group 
     symmetry decomposition not available

 **************************************************************************

 **************************************************************************

                    xk=(   0.26250,   0.97500,   0.26250  )

     point group C_s (m)    
     there are  2 classes
     the character table:

       E     s    
A'     1.00  1.00
A''    1.00 -1.00

     the symmetry operations in each class and the name of the first element:

     E        1
                                                                 
     s        2
                                                                 

     Band symmetry, C_s (m)     point group:

     e(  1 -  1) =    -16.10349  eV     1   --> A'             
     e(  2 -  2) =    -16.08569  eV     1   --> A''            
     e(  3 -  3) =    -16.01158  eV     1   --> A'             
     e(  4 -  4) =    -15.96019  eV     1   --> A'             
     e(  5 -  5) =    -15.93733  eV     1   --> A''            
     e(  6 -  6) =    -15.93035  eV     1   --> A'             
     e(  7 -  7) =    -15.92071  eV     1   --> A''            
     e(  8 -  8) =    -15.88586  eV     1   --> A'             
     e(  9 -  9) =    -15.79134  eV     1   --> A''            
     e( 10 - 10) =    -15.78394  eV     1   --> A'             
     e( 11 - 11) =     -0.41346  eV     1   --> A'             
     e( 12 - 12) =      0.75422  eV     1   --> A'             
     e( 13 - 13) =      4.72342  eV     1   --> A'             
     e( 14 - 14) =      6.37959  eV     1   --> A''            
     e( 15 - 15) =     10.03874  eV     1   --> A'             
     e( 16 - 16) =     13.02810  eV     1   --> A'             
     e( 17 - 17) =     15.53037  eV     1   --> A'             
     e( 18 - 18) =     15.78350  eV     1   --> A''            

 **************************************************************************

 **************************************************************************

                    xk=(   0.27500,   0.95000,   0.27500  )

     Band symmetry, C_s (m)     point group:

     e(  1 -  1) =    -16.10408  eV     1   --> A'             
     e(  2 -  2) =    -16.08716  eV     1   --> A''            
     e(  3 -  3) =    -16.01192  eV     1   --> A'             
     e(  4 -  4) =    -15.95513  eV     1   --> A'             
     e(  5 -  5) =    -15.94126  eV     1   --> A''            
     e(  6 -  6) =    -15.93470  eV     1   --> A'             
     e(  7 -  7) =    -15.91987  eV     1   --> A''            
     e(  8 -  8) =    -15.88449  eV     1   --> A'             
     e(  9 -  9) =    -15.79340  eV     1   --> A''            
     e( 10 - 10) =    -15.78528  eV     1   --> A'             
     e( 11 - 11) =     -0.50198  eV     1   --> A'             
     e( 12 - 12) =      0.84515  eV     1   --> A'             
     e( 13 - 13) =      4.71423  eV     1   --> A'             
     e( 14 - 14) =      6.42858  eV     1   --> A''            
     e( 15 - 15) =     10.08169  eV     1   --> A'             
     e( 16 - 16) =     13.27026  eV     1   --> A'             
     e( 17 - 17) =     15.28073  eV     1   --> A'             
     e( 18 - 18) =     15.60055  eV     1   --> A''            

 **************************************************************************

 **************************************************************************

                    xk=(   0.28750,   0.92500,   0.28750  )

     Band symmetry, C_s (m)     point group:

     e(  1 -  1) =    -16.10229  eV     1   --> A'             
     e(  2 -  2) =    -16.08736  eV     1   --> A''            
     e(  3 -  3) =    -16.01305  eV     1   --> A'             
     e(  4 -  4) =    -15.94834  eV     1   --> A'             
     e(  5 -  5) =    -15.94532  eV     1   --> A''            
     e(  6 -  6) =    -15.93725  eV     1   --> A'             
     e(  7 -  7) =    -15.91739  eV     1   --> A''            
     e(  8 -  8) =    -15.88409  eV     1   --> A'             
     e(  9 -  9) =    -15.79439  eV     1   --> A''            
     e( 10 - 10) =    -15.78466  eV     1   --> A'             
     e( 11 - 11) =     -0.60031  eV     1   --> A'             
     e( 12 - 12) =      0.94213  eV     1   --> A'             
     e( 13 - 13) =      4.72674  eV     1   --> A'             
     e( 14 - 14) =      6.48311  eV     1   --> A''            
     e( 15 - 15) =     10.12931  eV     1   --> A'             
     e( 16 - 16) =     13.50695  eV     1   --> A'             
     e( 17 - 17) =     15.00208  eV     1   --> A'             
     e( 18 - 18) =     15.39338  eV     1   --> A''            

 **************************************************************************

 **************************************************************************

                    xk=(   0.30000,   0.90000,   0.30000  )

     Band symmetry, C_s (m)     point group:

     e(  1 -  1) =    -16.10167  eV     1   --> A'             
     e(  2 -  2) =    -16.08672  eV     1   --> A''            
     e(  3 -  3) =    -16.01347  eV     1   --> A'             
     e(  4 -  4) =    -15.94860  eV     1   --> A''            
     e(  5 -  5) =    -15.94617  eV     1   --> A'             
     e(  6 -  6) =    -15.93744  eV     1   --> A'             
     e(  7 -  7) =    -15.91236  eV     1   --> A''            
     e(  8 -  8) =    -15.88289  eV     1   --> A'             
     e(  9 -  9) =    -15.79385  eV     1   --> A''            
     e( 10 - 10) =    -15.78299  eV     1   --> A'             
     e( 11 - 11) =     -0.70182  eV     1   --> A'             
     e( 12 - 12) =      1.03679  eV     1   --> A'             
     e( 13 - 13) =      4.76264  eV     1   --> A'             
     e( 14 - 14) =      6.54285  eV     1   --> A''            
     e( 15 - 15) =     10.18037  eV     1   --> A'             
     e( 16 - 16) =     13.71410  eV     1   --> A'             
     e( 17 - 17) =     14.74202  eV     1   --> A'             
     e( 18 - 18) =     15.16869  eV     1   --> A''            

 **************************************************************************

 **************************************************************************

                    xk=(   0.31250,   0.87500,   0.31250  )

     Band symmetry, C_s (m)     point group:

     e(  1 -  1) =    -16.10110  eV     1   --> A'             
     e(  2 -  2) =    -16.08640  eV     1   --> A''            
     e(  3 -  3) =    -16.01422  eV     1   --> A'             
     e(  4 -  4) =    -15.95251  eV     1   --> A''            
     e(  5 -  5) =    -15.94951  eV     1   --> A'             
     e(  6 -  6) =    -15.93295  eV     1   --> A'             
     e(  7 -  7) =    -15.90910  eV     1   --> A''            
     e(  8 -  8) =    -15.88252  eV     1   --> A'             
     e(  9 -  9) =    -15.79413  eV     1   --> A''            
     e( 10 - 10) =    -15.78401  eV     1   --> A'             
     e( 11 - 11) =     -0.80261  eV     1   --> A'             
     e( 12 - 12) =      1.12398  eV     1   --> A'             
     e( 13 - 13) =      4.82316  eV     1   --> A'             
     e( 14 - 14) =      6.60719  eV     1   --> A''            
     e( 15 - 15) =     10.23296  eV     1   --> A'             
     e( 16 - 16) =     13.81726  eV     1   --> A'             
     e( 17 - 17) =     14.58873  eV     1   --> A'             
     e( 18 - 18) =     14.93326  eV     1   --> A''            

 **************************************************************************

 **************************************************************************

                    xk=(   0.32500,   0.85000,   0.32500  )

     Band symmetry, C_s (m)     point group:

     e(  1 -  1) =    -16.10042  eV     1   --> A'             
     e(  2 -  2) =    -16.08599  eV     1   --> A''            
     e(  3 -  3) =    -16.01578  eV     1   --> A'             
     e(  4 -  4) =    -15.95555  eV     1   --> A''            
     e(  5 -  5) =    -15.95316  eV     1   --> A'             
     e(  6 -  6) =    -15.92977  eV     1   --> A'             
     e(  7 -  7) =    -15.90483  eV     1   --> A''            
     e(  8 -  8) =    -15.88126  eV     1   --> A'             
     e(  9 -  9) =    -15.79402  eV     1   --> A''            
     e( 10 - 10) =    -15.78638  eV     1   --> A'             
     e( 11 - 11) =     -0.90038  eV     1   --> A'             
     e( 12 - 12) =      1.20076  eV     1   --> A'             
     e( 13 - 13) =      4.90883  eV     1   --> A'             
     e( 14 - 14) =      6.67565  eV     1   --> A''            
     e( 15 - 15) =     10.28424  eV     1   --> A'             
     e( 16 - 16) =     13.71623  eV     1   --> A'             
     e( 17 - 17) =     14.64978  eV     1   --> A'             
     e( 18 - 18) =     14.69250  eV     1   --> A''            

 **************************************************************************

 **************************************************************************

                    xk=(   0.33750,   0.82500,   0.33750  )

     Band symmetry, C_s (m)     point group:

     e(  1 -  1) =    -16.09945  eV     1   --> A'             
     e(  2 -  2) =    -16.08375  eV     1   --> A''            
     e(  3 -  3) =    -16.01685  eV     1   --> A'             
     e(  4 -  4) =    -15.95898  eV     1   --> A''            
     e(  5 -  5) =    -15.95735  eV     1   --> A'             
     e(  6 -  6) =    -15.92423  eV     1   --> A'             
     e(  7 -  7) =    -15.90155  eV     1   --> A''            
     e(  8 -  8) =    -15.88014  eV     1   --> A'             
     e(  9 -  9) =    -15.79439  eV     1   --> A''            
     e( 10 - 10) =    -15.78666  eV     1   --> A'             
     e( 11 - 11) =     -0.99371  eV     1   --> A'             
     e( 12 - 12) =      1.26573  eV     1   --> A'             
     e( 13 - 13) =      5.01959  eV     1   --> A'             
     e( 14 - 14) =      6.74762  eV     1   --> A''            
     e( 15 - 15) =     10.33055  eV     1   --> A'             
     e( 16 - 16) =     13.48817  eV     1   --> A'             
     e( 17 - 17) =     14.45167  eV     1   --> A''            
     e( 18 - 18) =     14.85221  eV     1   --> A'             

 **************************************************************************

 **************************************************************************

                    xk=(   0.35000,   0.80000,   0.35000  )

     Band symmetry, C_s (m)     point group:

     e(  1 -  1) =    -16.10015  eV     1   --> A'             
     e(  2 -  2) =    -16.08283  eV     1   --> A''            
     e(  3 -  3) =    -16.01838  eV     1   --> A'             
     e(  4 -  4) =    -15.96405  eV     1   --> A'             
     e(  5 -  5) =    -15.96213  eV     1   --> A''            
     e(  6 -  6) =    -15.91960  eV     1   --> A'             
     e(  7 -  7) =    -15.89666  eV     1   --> A''            
     e(  8 -  8) =    -15.87984  eV     1   --> A'             
     e(  9 -  9) =    -15.79488  eV     1   --> A''            
     e( 10 - 10) =    -15.78858  eV     1   --> A'             
     e( 11 - 11) =     -1.08171  eV     1   --> A'             
     e( 12 - 12) =      1.31862  eV     1   --> A'             
     e( 13 - 13) =      5.15448  eV     1   --> A'             
     e( 14 - 14) =      6.82234  eV     1   --> A''            
     e( 15 - 15) =     10.36617  eV     1   --> A'             
     e( 16 - 16) =     13.23166  eV     1   --> A'             
     e( 17 - 17) =     14.21389  eV     1   --> A''            
     e( 18 - 18) =     15.10097  eV     1   --> A'             

 **************************************************************************

 **************************************************************************

                    xk=(   0.36250,   0.77500,   0.36250  )

     Band symmetry, C_s (m)     point group:

     e(  1 -  1) =    -16.09759  eV     1   --> A'             
     e(  2 -  2) =    -16.08258  eV     1   --> A''            
     e(  3 -  3) =    -16.01579  eV     1   --> A'             
     e(  4 -  4) =    -15.96641  eV     1   --> A'             
     e(  5 -  5) =    -15.96330  eV     1   --> A''            
     e(  6 -  6) =    -15.91253  eV     1   --> A'             
     e(  7 -  7) =    -15.89337  eV     1   --> A''            
     e(  8 -  8) =    -15.87765  eV     1   --> A'             
     e(  9 -  9) =    -15.79280  eV     1   --> A''            
     e( 10 - 10) =    -15.78666  eV     1   --> A'             
     e( 11 - 11) =     -1.16376  eV     1   --> A'             
     e( 12 - 12) =      1.36012  eV     1   --> A'             
     e( 13 - 13) =      5.31207  eV     1   --> A'             
     e( 14 - 14) =      6.89884  eV     1   --> A''            
     e( 15 - 15) =     10.38445  eV     1   --> A'             
     e( 16 - 16) =     12.98611  eV     1   --> A'             
     e( 17 - 17) =     13.98408  eV     1   --> A''            
     e( 18 - 18) =     15.36189  eV     1   --> A'             

 **************************************************************************

 **************************************************************************

                    xk=(   0.37500,   0.75000,   0.37500  )

     Band symmetry, C_s (m)     point group:

     e(  1 -  1) =    -16.09609  eV     1   --> A'             
     e(  2 -  2) =    -16.08134  eV     1   --> A''            
     e(  3 -  3) =    -16.01808  eV     1   --> A'             
     e(  4 -  4) =    -15.96960  eV     1   --> A'             
     e(  5 -  5) =    -15.96664  eV     1   --> A''            
     e(  6 -  6) =    -15.90525  eV     1   --> A'             
     e(  7 -  7) =    -15.89122  eV     1   --> A''            
     e(  8 -  8) =    -15.87630  eV     1   --> A'             
     e(  9 -  9) =    -15.79234  eV     1   --> A''            
     e( 10 - 10) =    -15.78846  eV     1   --> A'             
     e( 11 - 11) =     -1.23945  eV     1   --> A'             
     e( 12 - 12) =      1.39128  eV     1   --> A'             
     e( 13 - 13) =      5.49023  eV     1   --> A'             
     e( 14 - 14) =      6.97624  eV     1   --> A''            
     e( 15 - 15) =     10.37479  eV     1   --> A'             
     e( 16 - 16) =     12.76988  eV     1   --> A'             
     e( 17 - 17) =     13.76271  eV     1   --> A''            
     e( 18 - 18) =     15.61766  eV     1   --> A'             

 **************************************************************************

 **************************************************************************

                    xk=(   0.38750,   0.72500,   0.38750  )

     Band symmetry, C_s (m)     point group:

     e(  1 -  1) =    -16.09231  eV     1   --> A'             
     e(  2 -  2) =    -16.08044  eV     1   --> A''            
     e(  3 -  3) =    -16.01910  eV     1   --> A'             
     e(  4 -  4) =    -15.97054  eV     1   --> A'             
     e(  5 -  5) =    -15.96804  eV     1   --> A''            
     e(  6 -  6) =    -15.89880  eV     1   --> A'             
     e(  7 -  7) =    -15.88823  eV     1   --> A''            
     e(  8 -  8) =    -15.87569  eV     1   --> A'             
     e(  9 -  9) =    -15.79036  eV     1   --> A''            
     e( 10 - 10) =    -15.78805  eV     1   --> A'             
     e( 11 - 11) =     -1.30846  eV     1   --> A'             
     e( 12 - 12) =      1.41370  eV     1   --> A'             
     e( 13 - 13) =      5.68646  eV     1   --> A'             
     e( 14 - 14) =      7.05339  eV     1   --> A''            
     e( 15 - 15) =     10.32753  eV     1   --> A'             
     e( 16 - 16) =     12.59699  eV     1   --> A'             
     e( 17 - 17) =     13.55316  eV     1   --> A''            
     e( 18 - 18) =     15.85296  eV     1   --> A'             

 **************************************************************************

 **************************************************************************

                    xk=(   0.40000,   0.70000,   0.40000  )

     Band symmetry, C_s (m)     point group:

     e(  1 -  1) =    -16.09055  eV     1   --> A'             
     e(  2 -  2) =    -16.08069  eV     1   --> A''            
     e(  3 -  3) =    -16.02161  eV     1   --> A'             
     e(  4 -  4) =    -15.97573  eV     1   --> A'             
     e(  5 -  5) =    -15.97428  eV     1   --> A''            
     e(  6 -  6) =    -15.89547  eV     1   --> A'             
     e(  7 -  7) =    -15.88735  eV     1   --> A''            
     e(  8 -  8) =    -15.87530  eV     1   --> A'             
     e(  9 -  9) =    -15.79446  eV     1   --> A''            
     e( 10 - 10) =    -15.78973  eV     1   --> A'             
     e( 11 - 11) =     -1.37063  eV     1   --> A'             
     e( 12 - 12) =      1.42892  eV     1   --> A'             
     e( 13 - 13) =      5.89816  eV     1   --> A'             
     e( 14 - 14) =      7.12891  eV     1   --> A''            
     e( 15 - 15) =     10.23469  eV     1   --> A'             
     e( 16 - 16) =     12.47461  eV     1   --> A'             
     e( 17 - 17) =     13.35569  eV     1   --> A''            
     e( 18 - 18) =     16.04744  eV     1   --> A'             

 **************************************************************************

 **************************************************************************

                    xk=(   0.41250,   0.67500,   0.41250  )

     Band symmetry, C_s (m)     point group:

     e(  1 -  1) =    -16.08966  eV     1   --> A'             
     e(  2 -  2) =    -16.07995  eV     1   --> A''            
     e(  3 -  3) =    -16.02458  eV     1   --> A'             
     e(  4 -  4) =    -15.97961  eV     1   --> A'             
     e(  5 -  5) =    -15.97618  eV     1   --> A''            
     e(  6 -  6) =    -15.89072  eV     1   --> A'             
     e(  7 -  7) =    -15.88450  eV     1   --> A''            
     e(  8 -  8) =    -15.87281  eV     1   --> A'             
     e(  9 -  9) =    -15.79614  eV     1   --> A''            
     e( 10 - 10) =    -15.79420  eV     1   --> A'             
     e( 11 - 11) =     -1.42576  eV     1   --> A'             
     e( 12 - 12) =      1.43856  eV     1   --> A'             
     e( 13 - 13) =      6.12245  eV     1   --> A'             
     e( 14 - 14) =      7.20146  eV     1   --> A''            
     e( 15 - 15) =     10.09523  eV     1   --> A'             
     e( 16 - 16) =     12.40450  eV     1   --> A'             
     e( 17 - 17) =     13.17538  eV     1   --> A''            
     e( 18 - 18) =     16.17844  eV     1   --> A'             

 **************************************************************************

 **************************************************************************

                    xk=(   0.42500,   0.65000,   0.42500  )

     Band symmetry, C_s (m)     point group:

     e(  1 -  1) =    -16.08755  eV     1   --> A'             
     e(  2 -  2) =    -16.07957  eV     1   --> A''            
     e(  3 -  3) =    -16.02528  eV     1   --> A'             
     e(  4 -  4) =    -15.98100  eV     1   --> A'             
     e(  5 -  5) =    -15.97886  eV     1   --> A''            
     e(  6 -  6) =    -15.88618  eV     1   --> A'             
     e(  7 -  7) =    -15.88238  eV     1   --> A''            
     e(  8 -  8) =    -15.87381  eV     1   --> A'             
     e(  9 -  9) =    -15.79696  eV     1   --> A''            
     e( 10 - 10) =    -15.79398  eV     1   --> A'             
     e( 11 - 11) =     -1.47372  eV     1   --> A'             
     e( 12 - 12) =      1.44408  eV     1   --> A'             
     e( 13 - 13) =      6.35612  eV     1   --> A'             
     e( 14 - 14) =      7.26936  eV     1   --> A''            
     e( 15 - 15) =      9.91537  eV     1   --> A'             
     e( 16 - 16) =     12.38061  eV     1   --> A'             
     e( 17 - 17) =     13.01338  eV     1   --> A''            
     e( 18 - 18) =     16.23086  eV     1   --> A'             

 **************************************************************************

 **************************************************************************

                    xk=(   0.43750,   0.62500,   0.43750  )

     Band symmetry, C_s (m)     point group:

     e(  1 -  1) =    -16.08581  eV     1   --> A'             
     e(  2 -  2) =    -16.07893  eV     1   --> A''            
     e(  3 -  3) =    -16.02910  eV     1   --> A'             
     e(  4 -  4) =    -15.98330  eV     1   --> A'             
     e(  5 -  5) =    -15.98196  eV     1   --> A''            
     e(  6 -  6) =    -15.88282  eV     1   --> A'             
     e(  7 -  7) =    -15.88216  eV     1   --> A''            
     e(  8 -  8) =    -15.87349  eV     1   --> A'             
     e(  9 -  9) =    -15.79585  eV     1   --> A''            
     e( 10 - 10) =    -15.79529  eV     1   --> A'             
     e( 11 - 11) =     -1.51444  eV     1   --> A'             
     e( 12 - 12) =      1.44670  eV     1   --> A'             
     e( 13 - 13) =      6.59522  eV     1   --> A'             
     e( 14 - 14) =      7.33088  eV     1   --> A''            
     e( 15 - 15) =      9.70600  eV     1   --> A'             
     e( 16 - 16) =     12.39051  eV     1   --> A'             
     e( 17 - 17) =     12.87163  eV     1   --> A''            
     e( 18 - 18) =     16.21154  eV     1   --> A'             

 **************************************************************************

 **************************************************************************

                    xk=(   0.45000,   0.60000,   0.45000  )

     Band symmetry, C_s (m)     point group:

     e(  1 -  1) =    -16.08325  eV     1   --> A'             
     e(  2 -  2) =    -16.07904  eV     1   --> A''            
     e(  3 -  3) =    -16.03116  eV     1   --> A'             
     e(  4 -  4) =    -15.98444  eV     1   --> A'             
     e(  5 -  5) =    -15.98202  eV     1   --> A''            
     e(  6 -  6) =    -15.88162  eV     1   --> A'             
     e(  7 -  7) =    -15.88072  eV     1   --> A''            
     e(  8 -  8) =    -15.87218  eV     1   --> A'             
     e(  9 -  9) =    -15.79427  eV     1   --> A'             
     e( 10 - 10) =    -15.79299  eV     1   --> A''            
     e( 11 - 11) =     -1.54784  eV     1   --> A'             
     e( 12 - 12) =      1.44748  eV     1   --> A'             
     e( 13 - 13) =      6.83433  eV     1   --> A'             
     e( 14 - 14) =      7.38441  eV     1   --> A''            
     e( 15 - 15) =      9.48110  eV     1   --> A'             
     e( 16 - 16) =     12.42131  eV     1   --> A'             
     e( 17 - 17) =     12.75285  eV     1   --> A''            
     e( 18 - 18) =     16.14700  eV     1   --> A'             

 **************************************************************************

 **************************************************************************

                    xk=(   0.46250,   0.57500,   0.46250  )

     Band symmetry, C_s (m)     point group:

     e(  1 -  1) =    -16.08117  eV     1   --> A'             
     e(  2 -  2) =    -16.07845  eV     1   --> A''            
     e(  3 -  3) =    -16.03262  eV     1   --> A'             
     e(  4 -  4) =    -15.98334  eV     1   --> A'             
     e(  5 -  5) =    -15.98293  eV     1   --> A''            
     e(  6 -  7) =    -15.87938  eV     2   --> A'             
     e(  6 -  7) =    -15.87938  eV     2   --> A''            
     e(  8 -  8) =    -15.87081  eV     1   --> A'             
     e(  9 -  9) =    -15.79356  eV     1   --> A''            
     e( 10 - 10) =    -15.79087  eV     1   --> A'             
     e( 11 - 11) =     -1.57387  eV     1   --> A'             
     e( 12 - 12) =      1.44727  eV     1   --> A'             
     e( 13 - 13) =      7.06512  eV     1   --> A'             
     e( 14 - 14) =      7.42821  eV     1   --> A''            
     e( 15 - 15) =      9.25557  eV     1   --> A'             
     e( 16 - 16) =     12.46082  eV     1   --> A'             
     e( 17 - 17) =     12.65775  eV     1   --> A''            
     e( 18 - 18) =     16.06655  eV     1   --> A'             

 **************************************************************************

 **************************************************************************

                    xk=(   0.47500,   0.55000,   0.47500  )

     Band symmetry, C_s (m)     point group:

     e(  1 -  1) =    -16.07841  eV     1   --> A'             
     e(  2 -  2) =    -16.07656  eV     1   --> A''            
     e(  3 -  3) =    -16.03576  eV     1   --> A'             
     e(  4 -  4) =    -15.98698  eV     1   --> A''            
     e(  5 -  5) =    -15.98616  eV     1   --> A'             
     e(  6 -  6) =    -15.87805  eV     1   --> A'             
     e(  7 -  7) =    -15.87769  eV     1   --> A''            
     e(  8 -  8) =    -15.86759  eV     1   --> A'             
     e(  9 -  9) =    -15.79593  eV     1   --> A''            
     e( 10 - 10) =    -15.79428  eV     1   --> A'             
     e( 11 - 11) =     -1.59245  eV     1   --> A'             
     e( 12 - 12) =      1.44664  eV     1   --> A'             
     e( 13 - 13) =      7.27226  eV     1   --> A'             
     e( 14 - 14) =      7.46075  eV     1   --> A''            
     e( 15 - 15) =      9.04926  eV     1   --> A'             
     e( 16 - 16) =     12.49697  eV     1   --> A'             
     e( 17 - 17) =     12.58756  eV     1   --> A''            
     e( 18 - 18) =     15.99344  eV     1   --> A'             

 **************************************************************************

 **************************************************************************

                    xk=(   0.48750,   0.52500,   0.48750  )

     Band symmetry, C_s (m)     point group:

     e(  1 -  1) =    -16.07610  eV     1   --> A'             
     e(  2 -  2) =    -16.07524  eV     1   --> A''            
     e(  3 -  3) =    -16.03779  eV     1   --> A'             
     e(  4 -  4) =    -15.98793  eV     1   --> A'             
     e(  5 -  5) =    -15.98738  eV     1   --> A''            
     e(  6 -  6) =    -15.87659  eV     1   --> A'             
     e(  7 -  7) =    -15.87345  eV     1   --> A''            
     e(  8 -  8) =    -15.86486  eV     1   --> A'             
     e(  9 -  9) =    -15.79632  eV     1   --> A''            
     e( 10 - 10) =    -15.79614  eV     1   --> A'             
     e( 11 - 11) =     -1.60361  eV     1   --> A'             
     e( 12 - 12) =      1.44609  eV     1   --> A'             
     e( 13 - 13) =      7.42738  eV     1   --> A'             
     e( 14 - 14) =      7.48098  eV     1   --> A''            
     e( 15 - 15) =      8.89352  eV     1   --> A'             
     e( 16 - 16) =     12.52198  eV     1   --> A'             
     e( 17 - 17) =     12.54538  eV     1   --> A''            
     e( 18 - 18) =     15.94347  eV     1   --> A'             

 **************************************************************************

 **************************************************************************

                    xk=(   0.50000,   0.50000,   0.50000  )

     zone border point and non-symmorphic group 
     symmetry decomposition not available

 **************************************************************************

 **************************************************************************

                    xk=(   0.47500,   0.47500,   0.47500  )

     point group C_3v (3m)  
     there are  3 classes
     the character table:

       E     2C3   3s_v 
A_1    1.00  1.00  1.00
A_2    1.00  1.00 -1.00
E      2.00 -1.00  0.00

     the symmetry operations in each class and the name of the first element:

     E        1
                                                                 
     2C3      2    3
                                                                 
     3s_v     4    5    6
                                                                 

     Band symmetry, C_3v (3m)   point group:

     e(  1 -  2) =    -16.07653  eV     2   --> E    L_3       
     e(  3 -  3) =    -16.03833  eV     1   --> A_1  L_1       
     e(  4 -  5) =    -15.98763  eV     2   --> E    L_3       
     e(  6 -  7) =    -15.87334  eV     2   --> E    L_3       
     e(  8 -  8) =    -15.86453  eV     1   --> A_1  L_1       
     e(  9 - 10) =    -15.79668  eV     2   --> E    L_3       
     e( 11 - 11) =     -1.63310  eV     1   --> A_1  L_1       
     e( 12 - 12) =      1.48639  eV     1   --> A_1  L_1       
     e( 13 - 14) =      7.49294  eV     2   --> E    L_3       
     e( 15 - 15) =      8.83802  eV     1   --> A_1  L_1       
     e( 16 - 17) =     12.53282  eV     2   --> E    L_3       
     e( 18 - 18) =     15.93203  eV     1   --> A_1  L_1       

 **************************************************************************

 **************************************************************************

                    xk=(   0.45000,   0.45000,   0.45000  )

     Band symmetry, C_3v (3m)   point group:

     e(  1 -  2) =    -16.07600  eV     2   --> E    L_3       
     e(  3 -  3) =    -16.03813  eV     1   --> A_1  L_1       
     e(  4 -  5) =    -15.98507  eV     2   --> E    L_3       
     e(  6 -  7) =    -15.87239  eV     2   --> E    L_3       
     e(  8 -  8) =    -15.86362  eV     1   --> A_1  L_1       
     e(  9 - 10) =    -15.79415  eV     2   --> E    L_3       
     e( 11 - 11) =     -1.70627  eV     1   --> A_1  L_1       
     e( 12 - 12) =      1.60385  eV     1   --> A_1  L_1       
     e( 13 - 14) =      7.50850  eV     2   --> E    L_3       
     e( 15 - 15) =      8.85332  eV     1   --> A_1  L_1       
     e( 16 - 17) =     12.53756  eV     2   --> E    L_3       
     e( 18 - 18) =     15.94968  eV     1   --> A_1  L_1       

 **************************************************************************

 **************************************************************************

                    xk=(   0.42500,   0.42500,   0.42500  )

     Band symmetry, C_3v (3m)   point group:

     e(  1 -  2) =    -16.07659  eV     2   --> E    L_3       
     e(  3 -  3) =    -16.04295  eV     1   --> A_1  L_1       
     e(  4 -  5) =    -15.98892  eV     2   --> E    L_3       
     e(  6 -  7) =    -15.87438  eV     2   --> E    L_3       
     e(  8 -  8) =    -15.85764  eV     1   --> A_1  L_1       
     e(  9 - 10) =    -15.79948  eV     2   --> E    L_3       
     e( 11 - 11) =     -1.81675  eV     1   --> A_1  L_1       
     e( 12 - 12) =      1.78817  eV     1   --> A_1  L_1       
     e( 13 - 14) =      7.53426  eV     2   --> E    L_3       
     e( 15 - 15) =      8.87829  eV     1   --> A_1  L_1       
     e( 16 - 17) =     12.54331  eV     2   --> E    L_3       
     e( 18 - 18) =     15.97439  eV     1   --> A_1  L_1       

 **************************************************************************

 **************************************************************************

                    xk=(   0.40000,   0.40000,   0.40000  )

     Band symmetry, C_3v (3m)   point group:

     e(  1 -  2) =    -16.07462  eV     2   --> E    L_3       
     e(  3 -  3) =    -16.04323  eV     1   --> A_1  L_1       
     e(  4 -  5) =    -15.98882  eV     2   --> E    L_3       
     e(  6 -  7) =    -15.87070  eV     2   --> E    L_3       
     e(  8 -  8) =    -15.85568  eV     1   --> A_1  L_1       
     e(  9 - 10) =    -15.79964  eV     2   --> E    L_3       
     e( 11 - 11) =     -1.95291  eV     1   --> A_1  L_1       
     e( 12 - 12) =      2.02727  eV     1   --> A_1  L_1       
     e( 13 - 14) =      7.57030  eV     2   --> E    L_3       
     e( 15 - 15) =      8.91357  eV     1   --> A_1  L_1       
     e( 16 - 17) =     12.54897  eV     2   --> E    L_3       
     e( 18 - 18) =     15.99259  eV     1   --> A_1  L_1       

 **************************************************************************

 **************************************************************************

                    xk=(   0.37500,   0.37500,   0.37500  )

     Band symmetry, C_3v (3m)   point group:

     e(  1 -  2) =    -16.07533  eV     2   --> E    L_3       
     e(  3 -  3) =    -16.04399  eV     1   --> A_1  L_1       
     e(  4 -  5) =    -15.99359  eV     2   --> E    L_3       
     e(  6 -  7) =    -15.87175  eV     2   --> E    L_3       
     e(  8 -  8) =    -15.85499  eV     1   --> A_1  L_1       
     e(  9 - 10) =    -15.80823  eV     2   --> E    L_3       
     e( 11 - 11) =     -2.10410  eV     1   --> A_1  L_1       
     e( 12 - 12) =      2.31031  eV     1   --> A_1  L_1       
     e( 13 - 14) =      7.61626  eV     2   --> E    L_3       
     e( 15 - 15) =      8.95840  eV     1   --> A_1  L_1       
     e( 16 - 17) =     12.55025  eV     2   --> E    L_3       
     e( 18 - 18) =     15.96283  eV     1   --> A_1  L_1       

 **************************************************************************

 **************************************************************************

                    xk=(   0.35000,   0.35000,   0.35000  )

     Band symmetry, C_3v (3m)   point group:

     e(  1 -  2) =    -16.07798  eV     2   --> E    L_3       
     e(  3 -  3) =    -16.04518  eV     1   --> A_1  L_1       
     e(  4 -  5) =    -15.99334  eV     2   --> E    L_3       
     e(  6 -  7) =    -15.87122  eV     2   --> E    L_3       
     e(  8 -  8) =    -15.85433  eV     1   --> A_1  L_1       
     e(  9 - 10) =    -15.80907  eV     2   --> E    L_3       
     e( 11 - 11) =     -2.26204  eV     1   --> A_1  L_1       
     e( 12 - 12) =      2.62869  eV     1   --> A_1  L_1       
     e( 13 - 14) =      7.67194  eV     2   --> E    L_3       
     e( 15 - 15) =      9.01251  eV     1   --> A_1  L_1       
     e( 16 - 17) =     12.54578  eV     2   --> E    L_3       
     e( 18 - 18) =     15.78485  eV     1   --> A_1  L_1       

 **************************************************************************

 **************************************************************************

                    xk=(   0.32500,   0.32500,   0.32500  )

     Band symmetry, C_3v (3m)   point group:

     e(  1 -  2) =    -16.07798  eV     2   --> E    L_3       
     e(  3 -  3) =    -16.04627  eV     1   --> A_1  L_1       
     e(  4 -  5) =    -15.99777  eV     2   --> E    L_3       
     e(  6 -  7) =    -15.87406  eV     2   --> E    L_3       
     e(  8 -  8) =    -15.84741  eV     1   --> A_1  L_1       
     e(  9 - 10) =    -15.81102  eV     2   --> E    L_3       
     e( 11 - 11) =     -2.42059  eV     1   --> A_1  L_1       
     e( 12 - 12) =      2.97608  eV     1   --> A_1  L_1       
     e( 13 - 14) =      7.73703  eV     2   --> E    L_3       
     e( 15 - 15) =      9.07531  eV     1   --> A_1  L_1       
     e( 16 - 17) =     12.52994  eV     2   --> E    L_3       
     e( 18 - 18) =     15.43659  eV     1   --> A_1  L_1       

 **************************************************************************

 **************************************************************************

                    xk=(   0.30000,   0.30000,   0.30000  )

     Band symmetry, C_3v (3m)   point group:

     e(  1 -  2) =    -16.07685  eV     2   --> E    L_3       
     e(  3 -  3) =    -16.04715  eV     1   --> A_1  L_1       
     e(  4 -  5) =    -15.99953  eV     2   --> E    L_3       
     e(  6 -  7) =    -15.87240  eV     2   --> E    L_3       
     e(  8 -  8) =    -15.84653  eV     1   --> A_1  L_1       
     e(  9 - 10) =    -15.81186  eV     2   --> E    L_3       
     e( 11 - 11) =     -2.57563  eV     1   --> A_1  L_1       
     e( 12 - 12) =      3.34743  eV     1   --> A_1  L_1       
     e( 13 - 14) =      7.81131  eV     2   --> E    L_3       
     e( 15 - 15) =      9.14577  eV     1   --> A_1  L_1       
     e( 16 - 17) =     12.49907  eV     2   --> E    L_3       
     e( 18 - 18) =     15.01803  eV     1   --> A_1  L_1       

 **************************************************************************

 **************************************************************************

                    xk=(   0.27500,   0.27500,   0.27500  )

     Band symmetry, C_3v (3m)   point group:

     e(  1 -  2) =    -16.07639  eV     2   --> E    L_3       
     e(  3 -  3) =    -16.05253  eV     1   --> A_1  L_1       
     e(  4 -  5) =    -16.00111  eV     2   --> E    L_3       
     e(  6 -  7) =    -15.87011  eV     2   --> E    L_3       
     e(  8 -  8) =    -15.84749  eV     1   --> A_1  L_1       
     e(  9 - 10) =    -15.81252  eV     2   --> E    L_3       
     e( 11 - 11) =     -2.72403  eV     1   --> A_1  L_1       
     e( 12 - 12) =      3.73885  eV     1   --> A_1  L_1       
     e( 13 - 14) =      7.89407  eV     2   --> E    L_3       
     e( 15 - 15) =      9.22272  eV     1   --> A_1  L_1       
     e( 16 - 17) =     12.44927  eV     2   --> E    L_3       
     e( 18 - 18) =     14.58169  eV     1   --> A_1  L_1       

 **************************************************************************

 **************************************************************************

                    xk=(   0.25000,   0.25000,   0.25000  )

     Band symmetry, C_3v (3m)   point group:

     e(  1 -  2) =    -16.07573  eV     2   --> E    L_3       
     e(  3 -  3) =    -16.05129  eV     1   --> A_1  L_1       
     e(  4 -  5) =    -16.00368  eV     2   --> E    L_3       
     e(  6 -  7) =    -15.86705  eV     2   --> E    L_3       
     e(  8 -  8) =    -15.84644  eV     1   --> A_1  L_1       
     e(  9 - 10) =    -15.81359  eV     2   --> E    L_3       
     e( 11 - 11) =     -2.86357  eV     1   --> A_1  L_1       
     e( 12 - 12) =      4.14783  eV     1   --> A_1  L_1       
     e( 13 - 14) =      7.98463  eV     2   --> E    L_3       
     e( 15 - 15) =      9.30426  eV     1   --> A_1  L_1       
     e( 16 - 17) =     12.37744  eV     2   --> E    L_3       
     e( 18 - 18) =     14.14453  eV     1   --> A_1  L_1       

 **************************************************************************

 **************************************************************************

                    xk=(   0.22500,   0.22500,   0.22500  )

     Band symmetry, C_3v (3m)   point group:

     e(  1 -  2) =    -16.07433  eV     2   --> E    L_3       
     e(  3 -  3) =    -16.05619  eV     1   --> A_1  L_1       
     e(  4 -  5) =    -16.00751  eV     2   --> E    L_3       
     e(  6 -  7) =    -15.86496  eV     2   --> E    L_3       
     e(  8 -  8) =    -15.84498  eV     1   --> A_1  L_1       
     e(  9 - 10) =    -15.81739  eV     2   --> E    L_3       
     e( 11 - 11) =     -2.99268  eV     1   --> A_1  L_1       
     e( 12 - 12) =      4.57135  eV     1   --> A_1  L_1       
     e( 13 - 14) =      8.08157  eV     2   --> E    L_3       
     e( 15 - 15) =      9.38756  eV     1   --> A_1  L_1       
     e( 16 - 17) =     12.28384  eV     2   --> E    L_3       
     e( 18 - 18) =     13.71250  eV     1   --> A_1  L_1       

 **************************************************************************

 **************************************************************************

                    xk=(   0.20000,   0.20000,   0.20000  )

     Band symmetry, C_3v (3m)   point group:

     e(  1 -  2) =    -16.07343  eV     2   --> E    L_3       
     e(  3 -  3) =    -16.05812  eV     1   --> A_1  L_1       
     e(  4 -  5) =    -16.01046  eV     2   --> E    L_3       
     e(  6 -  7) =    -15.86335  eV     2   --> E    L_3       
     e(  8 -  8) =    -15.85037  eV     1   --> A_1  L_1       
     e(  9 - 10) =    -15.81891  eV     2   --> E    L_3       
     e( 11 - 11) =     -3.11026  eV     1   --> A_1  L_1       
     e( 12 - 12) =      5.00692  eV     1   --> A_1  L_1       
     e( 13 - 14) =      8.18385  eV     2   --> E    L_3       
     e( 15 - 15) =      9.46843  eV     1   --> A_1  L_1       
     e( 16 - 17) =     12.17039  eV     2   --> E    L_3       
     e( 18 - 18) =     13.29070  eV     1   --> A_1  L_1       

 **************************************************************************

 **************************************************************************

                    xk=(   0.17500,   0.17500,   0.17500  )

     Band symmetry, C_3v (3m)   point group:

     e(  1 -  2) =    -16.07093  eV     2   --> E    L_3       
     e(  3 -  3) =    -16.05973  eV     1   --> A_1  L_1       
     e(  4 -  5) =    -16.01279  eV     2   --> E    L_3       
     e(  6 -  7) =    -15.85957  eV     2   --> E    L_3       
     e(  8 -  8) =    -15.85209  eV     1   --> A_1  L_1       
     e(  9 - 10) =    -15.82025  eV     2   --> E    L_3       
     e( 11 - 11) =     -3.21539  eV     1   --> A_1  L_1       
     e( 12 - 12) =      5.45259  eV     1   --> A_1  L_1       
     e( 13 - 14) =      8.28955  eV     2   --> E    L_3       
     e( 15 - 15) =      9.54048  eV     1   --> A_1  L_1       
     e( 16 - 17) =     12.04167  eV     2   --> E    L_3       
     e( 18 - 18) =     12.88294  eV     1   --> A_1  L_1       

 **************************************************************************

 **************************************************************************

                    xk=(   0.15000,   0.15000,   0.15000  )

     Band symmetry, C_3v (3m)   point group:

     e(  1 -  2) =    -16.07097  eV     2   --> E    L_3       
     e(  3 -  3) =    -16.05954  eV     1   --> A_1  L_1       
     e(  4 -  5) =    -16.01577  eV     2   --> E    L_3       
     e(  6 -  7) =    -15.85824  eV     2   --> E    L_3       
     e(  8 -  8) =    -15.84656  eV     1   --> A_1  L_1       
     e(  9 - 10) =    -15.82336  eV     2   --> E    L_3       
     e( 11 - 11) =     -3.30746  eV     1   --> A_1  L_1       
     e( 12 - 12) =      5.90560  eV     1   --> A_1  L_1       
     e( 13 - 14) =      8.39599  eV     2   --> E    L_3       
     e( 15 - 15) =      9.59419  eV     1   --> A_1  L_1       
     e( 16 - 17) =     11.90389  eV     2   --> E    L_3       
     e( 18 - 18) =     12.49720  eV     1   --> A_1  L_1       

 **************************************************************************

 **************************************************************************

                    xk=(   0.12500,   0.12500,   0.12500  )

     Band symmetry, C_3v (3m)   point group:

     e(  1 -  2) =    -16.06872  eV     2   --> E    L_3       
     e(  3 -  3) =    -16.05984  eV     1   --> A_1  L_1       
     e(  4 -  5) =    -16.01834  eV     2   --> E    L_3       
     e(  6 -  7) =    -15.85498  eV     2   --> E    L_3       
     e(  8 -  8) =    -15.84566  eV     1   --> A_1  L_1       
     e(  9 - 10) =    -15.82502  eV     2   --> E    L_3       
     e( 11 - 11) =     -3.38602  eV     1   --> A_1  L_1       
     e( 12 - 12) =      6.36255  eV     1   --> A_1  L_1       
     e( 13 - 14) =      8.50034  eV     2   --> E    L_3       
     e( 15 - 15) =      9.61403  eV     1   --> A_1  L_1       
     e( 16 - 17) =     11.76468  eV     2   --> E    L_3       
     e( 18 - 18) =     12.14438  eV     1   --> A_1  L_1       

 **************************************************************************

 **************************************************************************

                    xk=(   0.10000,   0.10000,   0.10000  )

     Band symmetry, C_3v (3m)   point group:

     e(  1 -  2) =    -16.06518  eV     2   --> E    L_3       
     e(  3 -  3) =    -16.06221  eV     1   --> A_1  L_1       
     e(  4 -  5) =    -16.02072  eV     2   --> E    L_3       
     e(  6 -  7) =    -15.85140  eV     2   --> E    L_3       
     e(  8 -  8) =    -15.84544  eV     1   --> A_1  L_1       
     e(  9 - 10) =    -15.82660  eV     2   --> E    L_3       
     e( 11 - 11) =     -3.45070  eV     1   --> A_1  L_1       
     e( 12 - 12) =      6.81963  eV     1   --> A_1  L_1       
     e( 13 - 14) =      8.59834  eV     2   --> E    L_3       
     e( 15 - 15) =      9.57935  eV     1   --> A_1  L_1       
     e( 16 - 17) =     11.63213  eV     2   --> E    L_3       
     e( 18 - 18) =     11.84133  eV     1   --> A_1  L_1       

 **************************************************************************

 **************************************************************************

                    xk=(   0.07500,   0.07500,   0.07500  )

     Band symmetry, C_3v (3m)   point group:

     e(  1 -  2) =    -16.06373  eV     2   --> E    L_3       
     e(  3 -  3) =    -16.05963  eV     1   --> A_1  L_1       
     e(  4 -  5) =    -16.02326  eV     2   --> E    L_3       
     e(  6 -  7) =    -15.84938  eV     2   --> E    L_3       
     e(  8 -  8) =    -15.84446  eV     1   --> A_1  L_1       
     e(  9 - 10) =    -15.82720  eV     2   --> E    L_3       
     e( 11 - 11) =     -3.50125  eV     1   --> A_1  L_1       
     e( 12 - 12) =      7.27188  eV     1   --> A_1  L_1       
     e( 13 - 14) =      8.68424  eV     2   --> E    L_3       
     e( 15 - 15) =      9.46835  eV     1   --> A_1  L_1       
     e( 16 - 17) =     11.51545  eV     2   --> E    L_3       
     e( 18 - 18) =     11.60707  eV     1   --> A_1  L_1       

 **************************************************************************

 **************************************************************************

                    xk=(   0.05000,   0.05000,   0.05000  )

     Band symmetry, C_3v (3m)   point group:

     e(  1 -  2) =    -16.06519  eV     2   --> E    L_3       
     e(  3 -  3) =    -16.06026  eV     1   --> A_1  L_1       
[...]
     e( 12 - 12) =      0.57664  eV     1   --> A''            
     e( 13 - 13) =      4.85719  eV     1   --> A'             
     e( 14 - 14) =      5.79716  eV     1   --> A''            
     e( 15 - 15) =     11.02613  eV     1   --> A''            
     e( 16 - 16) =     12.87734  eV     1   --> A'             
     e( 17 - 17) =     14.67267  eV     1   --> A'             
     e( 18 - 18) =     14.75631  eV     1   --> A''            

 **************************************************************************

 **************************************************************************

                    xk=(   0.61250,   0.88750,   0.00000  )

     Band symmetry, C_s (m)     point group:

     e(  1 -  1) =    -16.10017  eV     1   --> A'             
     e(  2 -  2) =    -16.09001  eV     1   --> A''            
     e(  3 -  3) =    -15.99653  eV     1   --> A''            
     e(  4 -  4) =    -15.96457  eV     1   --> A'             
     e(  5 -  5) =    -15.93778  eV     1   --> A''            
     e(  6 -  6) =    -15.92937  eV     1   --> A'             
     e(  7 -  7) =    -15.91720  eV     1   --> A''            
     e(  8 -  8) =    -15.89085  eV     1   --> A'             
     e(  9 -  9) =    -15.78980  eV     1   --> A'             
     e( 10 - 10) =    -15.78298  eV     1   --> A''            
     e( 11 - 11) =     -0.18103  eV     1   --> A'             
     e( 12 - 12) =      0.55273  eV     1   --> A''            
     e( 13 - 13) =      4.87890  eV     1   --> A'             
     e( 14 - 14) =      5.71778  eV     1   --> A''            
     e( 15 - 15) =     11.20799  eV     1   --> A''            
     e( 16 - 16) =     12.89429  eV     1   --> A'             
     e( 17 - 17) =     14.52593  eV     1   --> A'             
     e( 18 - 18) =     14.61049  eV     1   --> A''            

 **************************************************************************

 **************************************************************************

                    xk=(   0.60000,   0.90000,   0.00000  )

     Band symmetry, C_s (m)     point group:

     e(  1 -  1) =    -16.09997  eV     1   --> A'             
     e(  2 -  2) =    -16.09072  eV     1   --> A''            
     e(  3 -  3) =    -15.99374  eV     1   --> A''            
     e(  4 -  4) =    -15.96557  eV     1   --> A'             
     e(  5 -  5) =    -15.93774  eV     1   --> A''            
     e(  6 -  6) =    -15.93023  eV     1   --> A'             
     e(  7 -  7) =    -15.91463  eV     1   --> A''            
     e(  8 -  8) =    -15.89237  eV     1   --> A'             
     e(  9 -  9) =    -15.78925  eV     1   --> A'             
     e( 10 - 10) =    -15.78310  eV     1   --> A''            
     e( 11 - 11) =     -0.14973  eV     1   --> A'             
     e( 12 - 12) =      0.52596  eV     1   --> A''            
     e( 13 - 13) =      4.90257  eV     1   --> A'             
     e( 14 - 14) =      5.63977  eV     1   --> A''            
     e( 15 - 15) =     11.39838  eV     1   --> A''            
     e( 16 - 16) =     12.91199  eV     1   --> A'             
     e( 17 - 17) =     14.38169  eV     1   --> A'             
     e( 18 - 18) =     14.46285  eV     1   --> A''            

 **************************************************************************

 **************************************************************************

                    xk=(   0.58750,   0.91250,   0.00000  )

     Band symmetry, C_s (m)     point group:

     e(  1 -  1) =    -16.10000  eV     1   --> A'             
     e(  2 -  2) =    -16.09173  eV     1   --> A''            
     e(  3 -  3) =    -15.99182  eV     1   --> A''            
     e(  4 -  4) =    -15.96667  eV     1   --> A'             
     e(  5 -  5) =    -15.93826  eV     1   --> A''            
     e(  6 -  6) =    -15.93132  eV     1   --> A'             
     e(  7 -  7) =    -15.91404  eV     1   --> A''            
     e(  8 -  8) =    -15.89395  eV     1   --> A'             
     e(  9 -  9) =    -15.79016  eV     1   --> A'             
     e( 10 - 10) =    -15.78331  eV     1   --> A''            
     e( 11 - 11) =     -0.11571  eV     1   --> A'             
     e( 12 - 12) =      0.49618  eV     1   --> A''            
     e( 13 - 13) =      4.92815  eV     1   --> A'             
     e( 14 - 14) =      5.56410  eV     1   --> A''            
     e( 15 - 15) =     11.59582  eV     1   --> A''            
     e( 16 - 16) =     12.92997  eV     1   --> A'             
     e( 17 - 17) =     14.24062  eV     1   --> A'             
     e( 18 - 18) =     14.31427  eV     1   --> A''            

 **************************************************************************

 **************************************************************************

                    xk=(   0.57500,   0.92500,   0.00000  )

     Band symmetry, C_s (m)     point group:

     e(  1 -  1) =    -16.09963  eV     1   --> A'             
     e(  2 -  2) =    -16.09309  eV     1   --> A''            
     e(  3 -  3) =    -15.98860  eV     1   --> A''            
     e(  4 -  4) =    -15.96794  eV     1   --> A'             
     e(  5 -  5) =    -15.93805  eV     1   --> A''            
     e(  6 -  6) =    -15.93224  eV     1   --> A'             
     e(  7 -  7) =    -15.91291  eV     1   --> A''            
     e(  8 -  8) =    -15.89657  eV     1   --> A'             
     e(  9 -  9) =    -15.78866  eV     1   --> A'             
     e( 10 - 10) =    -15.78347  eV     1   --> A''            
     e( 11 - 11) =     -0.07901  eV     1   --> A'             
     e( 12 - 12) =      0.46335  eV     1   --> A''            
     e( 13 - 13) =      4.95562  eV     1   --> A'             
     e( 14 - 14) =      5.49168  eV     1   --> A''            
     e( 15 - 15) =     11.79944  eV     1   --> A''            
     e( 16 - 16) =     12.94756  eV     1   --> A'             
     e( 17 - 17) =     14.10376  eV     1   --> A'             
     e( 18 - 18) =     14.16607  eV     1   --> A''            

 **************************************************************************

 **************************************************************************

                    xk=(   0.56250,   0.93750,   0.00000  )

     Band symmetry, C_s (m)     point group:

     e(  1 -  1) =    -16.09611  eV     1   --> A'             
     e(  2 -  2) =    -16.09210  eV     1   --> A''            
     e(  3 -  3) =    -15.98538  eV     1   --> A''            
     e(  4 -  4) =    -15.96803  eV     1   --> A'             
     e(  5 -  5) =    -15.93615  eV     1   --> A''            
     e(  6 -  6) =    -15.93168  eV     1   --> A'             
     e(  7 -  7) =    -15.90872  eV     1   --> A''            
     e(  8 -  8) =    -15.89689  eV     1   --> A'             
     e(  9 -  9) =    -15.78630  eV     1   --> A'             
     e( 10 - 10) =    -15.78343  eV     1   --> A''            
     e( 11 - 11) =     -0.03959  eV     1   --> A'             
     e( 12 - 12) =      0.42734  eV     1   --> A''            
     e( 13 - 13) =      4.98497  eV     1   --> A'             
     e( 14 - 14) =      5.42323  eV     1   --> A''            
     e( 15 - 15) =     12.00783  eV     1   --> A''            
     e( 16 - 16) =     12.96403  eV     1   --> A'             
     e( 17 - 17) =     13.97248  eV     1   --> A'             
     e( 18 - 18) =     14.01950  eV     1   --> A''            

 **************************************************************************

 **************************************************************************

                    xk=(   0.55000,   0.95000,   0.00000  )

     Band symmetry, C_s (m)     point group:

     e(  1 -  1) =    -16.09536  eV     1   --> A'             
     e(  2 -  2) =    -16.09193  eV     1   --> A''            
     e(  3 -  3) =    -15.98296  eV     1   --> A''            
     e(  4 -  4) =    -15.96939  eV     1   --> A'             
     e(  5 -  5) =    -15.93558  eV     1   --> A''            
     e(  6 -  6) =    -15.93218  eV     1   --> A'             
     e(  7 -  7) =    -15.90681  eV     1   --> A''            
     e(  8 -  8) =    -15.89829  eV     1   --> A'             
     e(  9 -  9) =    -15.78510  eV     1   --> A'             
     e( 10 - 10) =    -15.78297  eV     1   --> A''            
     e( 11 - 11) =      0.00251  eV     1   --> A'             
     e( 12 - 12) =      0.38806  eV     1   --> A''            
     e( 13 - 13) =      5.01609  eV     1   --> A'             
     e( 14 - 14) =      5.35929  eV     1   --> A''            
     e( 15 - 15) =     12.21901  eV     1   --> A''            
     e( 16 - 16) =     12.97695  eV     1   --> A'             
     e( 17 - 17) =     13.84809  eV     1   --> A'             
     e( 18 - 18) =     13.87601  eV     1   --> A''            

 **************************************************************************

 **************************************************************************

                    xk=(   0.53750,   0.96250,   0.00000  )

     Band symmetry, C_s (m)     point group:

     e(  1 -  1) =    -16.09488  eV     1   --> A'             
     e(  2 -  2) =    -16.09222  eV     1   --> A''            
     e(  3 -  3) =    -15.97950  eV     1   --> A''            
     e(  4 -  4) =    -15.96917  eV     1   --> A'             
     e(  5 -  5) =    -15.93429  eV     1   --> A''            
     e(  6 -  6) =    -15.93300  eV     1   --> A'             
     e(  7 -  7) =    -15.90478  eV     1   --> A''            
     e(  8 -  8) =    -15.89923  eV     1   --> A'             
     e(  9 -  9) =    -15.78257  eV     1   --> A''            
     e( 10 - 10) =    -15.78235  eV     1   --> A'             
     e( 11 - 11) =      0.04732  eV     1   --> A'             
     e( 12 - 12) =      0.34549  eV     1   --> A''            
     e( 13 - 13) =      5.04897  eV     1   --> A'             
     e( 14 - 14) =      5.30041  eV     1   --> A''            
     e( 15 - 15) =     12.42995  eV     1   --> A''            
     e( 16 - 16) =     12.98402  eV     1   --> A'             
     e( 17 - 17) =     13.73407  eV     1   --> A'             
     e( 18 - 18) =     13.73879  eV     1   --> A''            

 **************************************************************************

 **************************************************************************

                    xk=(   0.52500,   0.97500,   0.00000  )

     Band symmetry, C_s (m)     point group:

     e(  1 -  1) =    -16.09427  eV     1   --> A'             
     e(  2 -  2) =    -16.09233  eV     1   --> A''            
     e(  3 -  3) =    -15.97471  eV     1   --> A''            
     e(  4 -  4) =    -15.96950  eV     1   --> A'             
     e(  5 -  5) =    -15.93561  eV     1   --> A''            
     e(  6 -  6) =    -15.93160  eV     1   --> A'             
     e(  7 -  7) =    -15.90383  eV     1   --> A''            
     e(  8 -  8) =    -15.89807  eV     1   --> A'             
     e(  9 -  9) =    -15.78248  eV     1   --> A''            
     e( 10 - 10) =    -15.78128  eV     1   --> A'             
     e( 11 - 11) =      0.09483  eV     1   --> A'             
     e( 12 - 12) =      0.29958  eV     1   --> A''            
     e( 13 - 13) =      5.08359  eV     1   --> A'             
     e( 14 - 14) =      5.24693  eV     1   --> A''            
     e( 15 - 15) =     12.63446  eV     1   --> A''            
     e( 16 - 16) =     12.98100  eV     1   --> A'             
     e( 17 - 17) =     13.61374  eV     1   --> A''            
     e( 18 - 18) =     13.63410  eV     1   --> A'             

 **************************************************************************

 **************************************************************************

                    xk=(   0.51250,   0.98750,   0.00000  )

     Band symmetry, C_s (m)     point group:

     e(  1 -  1) =    -16.09429  eV     1   --> A'             
     e(  2 -  2) =    -16.09364  eV     1   --> A''            
     e(  3 -  3) =    -15.97488  eV     1   --> A''            
     e(  4 -  4) =    -15.97123  eV     1   --> A'             
     e(  5 -  5) =    -15.93561  eV     1   --> A''            
     e(  6 -  6) =    -15.93304  eV     1   --> A'             
     e(  7 -  7) =    -15.90310  eV     1   --> A''            
     e(  8 -  8) =    -15.90003  eV     1   --> A'             
     e(  9 -  9) =    -15.78343  eV     1   --> A'             
     e( 10 - 10) =    -15.78307  eV     1   --> A''            
     e( 11 - 11) =      0.14497  eV     1   --> A'             
     e( 12 - 12) =      0.25027  eV     1   --> A''            
     e( 13 - 13) =      5.11980  eV     1   --> A'             
     e( 14 - 14) =      5.19925  eV     1   --> A''            
     e( 15 - 15) =     12.81333  eV     1   --> A''            
     e( 16 - 16) =     12.96201  eV     1   --> A'             
     e( 17 - 17) =     13.51872  eV     1   --> A''            
     e( 18 - 18) =     13.55408  eV     1   --> A'             

 **************************************************************************

 **************************************************************************

                    xk=(   0.50000,   1.00000,   0.00000  )

     zone border point and non-symmorphic group 
     symmetry decomposition not available

 **************************************************************************

 **************************************************************************

                    xk=(   0.47500,   1.00000,   0.00000  )

     zone border point and non-symmorphic group 
     symmetry decomposition not available

 **************************************************************************

 **************************************************************************

                    xk=(   0.45000,   1.00000,   0.00000  )

     zone border point and non-symmorphic group 
     symmetry decomposition not available

 **************************************************************************

 **************************************************************************

                    xk=(   0.42500,   1.00000,   0.00000  )

     zone border point and non-symmorphic group 
     symmetry decomposition not available

 **************************************************************************

 **************************************************************************

                    xk=(   0.40000,   1.00000,   0.00000  )

     zone border point and non-symmorphic group 
     symmetry decomposition not available

 **************************************************************************

 **************************************************************************

                    xk=(   0.37500,   1.00000,   0.00000  )

     zone border point and non-symmorphic group 
     symmetry decomposition not available

 **************************************************************************

 **************************************************************************

                    xk=(   0.35000,   1.00000,  -0.00000  )

     zone border point and non-symmorphic group 
     symmetry decomposition not available

 **************************************************************************

 **************************************************************************

                    xk=(   0.32500,   1.00000,   0.00000  )

     zone border point and non-symmorphic group 
     symmetry decomposition not available

 **************************************************************************

 **************************************************************************

                    xk=(   0.30000,   1.00000,   0.00000  )

     zone border point and non-symmorphic group 
     symmetry decomposition not available

 **************************************************************************

 **************************************************************************

                    xk=(   0.27500,   1.00000,   0.00000  )

     zone border point and non-symmorphic group 
     symmetry decomposition not available

 **************************************************************************

 **************************************************************************

                    xk=(   0.25000,   1.00000,   0.00000  )

     zone border point and non-symmorphic group 
     symmetry decomposition not available

 **************************************************************************

 **************************************************************************

                    xk=(   0.22500,   1.00000,   0.00000  )

     zone border point and non-symmorphic group 
     symmetry decomposition not available

 **************************************************************************

 **************************************************************************

                    xk=(   0.20000,   1.00000,   0.00000  )

     zone border point and non-symmorphic group 
     symmetry decomposition not available

 **************************************************************************

 **************************************************************************

                    xk=(   0.17500,   1.00000,   0.00000  )

     zone border point and non-symmorphic group 
     symmetry decomposition not available

 **************************************************************************

 **************************************************************************

                    xk=(   0.15000,   1.00000,   0.00000  )

     zone border point and non-symmorphic group 
     symmetry decomposition not available

 **************************************************************************

 **************************************************************************

                    xk=(   0.12500,   1.00000,   0.00000  )

     zone border point and non-symmorphic group 
     symmetry decomposition not available

 **************************************************************************

 **************************************************************************

                    xk=(   0.10000,   1.00000,   0.00000  )

     zone border point and non-symmorphic group 
     symmetry decomposition not available

 **************************************************************************

 **************************************************************************

                    xk=(   0.07500,   1.00000,   0.00000  )

     zone border point and non-symmorphic group 
     symmetry decomposition not available

 **************************************************************************

 **************************************************************************

                    xk=(   0.05000,   1.00000,   0.00000  )

     zone border point and non-symmorphic group 
     symmetry decomposition not available

 **************************************************************************

 **************************************************************************

                    xk=(   0.02500,   1.00000,   0.00000  )

     zone border point and non-symmorphic group 
     symmetry decomposition not available

 **************************************************************************

 **************************************************************************

                    xk=(   0.00000,   1.00000,   0.00000  )

     zone border point and non-symmorphic group 
     symmetry decomposition not available

 **************************************************************************
 
     BANDS        :      8.48s CPU      9.23s WALL

 
   This run was terminated on:  14: 6:43  26May2025            

=------------------------------------------------------------------------------=
   JOB DONE.
=------------------------------------------------------------------------------=
