
     Program DOS v.6.8 starts on 26May2025 at 16:54:40 

     This program is part of the open-source Quantum ESPRESSO suite
     for quantum simulation of materials; please cite
         "P. Giannozzi et al., J. Phys.:Condens. Matter 21 395502 (2009);
         "P. Giannozzi et al., J. Phys.:Condens. Matter 29 465901 (2017);
         "P. Giannozzi et al., J. Chem. Phys. 152 154105 (2020);
          URL http://www.quantum-espresso.org", 
     in publications or presentations arising from this work. More details at
     http://www.quantum-espresso.org/quote

     Parallel version (MPI & OpenMP), running on      56 processor cores
     Number of MPI processes:                 1
     Threads/MPI process:                    56

     MPI processes distributed on     1 nodes
     172716 MiB available memory on the printing compute node when the environment starts
 

     Reading xml data from directory:

     ./Ge_out/Ge_scf.save/

     IMPORTANT: XC functional enforced from input :
     Exchange-correlation= PBE
                           (   1   4   3   4   0   0   0)
     Any further DFT definition will be discarded
     Please, verify this is what you really want

 
     G-vector sticks info
     --------------------
     sticks:   dense  smooth     PW     G-vecs:    dense   smooth      PW
     Sum         967     967    301                20179    20179    3383
 
     Using Slab Decomposition
 

     Gaussian broadening (read from file): ngauss,degauss=   0    0.010000

 
     DOS          :     10.29s CPU      0.40s WALL

 
   This run was terminated on:  16:54:41  26May2025            

=------------------------------------------------------------------------------=
   JOB DONE.
=------------------------------------------------------------------------------=
