216  
1    

1    
  0.0200000000000000   0.0000000000000000   0.0000000000000000
  -0.0041476907   -0.0000000000    0.0000000000
   0.0000111493   -0.0000000000    0.0000000000
   0.0000102993   -0.0000000000    0.0000000000
   0.0000126293    0.0000029000   -0.0000007300
   0.0000091593    0.0000092400    0.0000042500
   0.0000098493   -0.0000054000    0.0000045200
   0.0000126293   -0.0000029000    0.0000007300
   0.0000091593   -0.0000092400   -0.0000042500
   0.0000098493    0.0000054000   -0.0000045200
   0.0000126293   -0.0000007300    0.0000029000
   0.0000091593    0.0000042500    0.0000092400
   0.0000098493    0.0000045200   -0.0000054000
  -0.0000315807   -0.0000053700   -0.0000053700
   0.0000111293   -0.0000007000   -0.0000007000
   0.0000134493   -0.0000018700   -0.0000018700
  -0.0000310207   -0.0000038800    0.0000038800
   0.0000111393    0.0000010600   -0.0000010600
   0.0000113293    0.0000017300   -0.0000017300
   0.0000126293    0.0000007300   -0.0000029000
   0.0000091593   -0.0000042500   -0.0000092400
   0.0000098493   -0.0000045200    0.0000054000
  -0.0000310207    0.0000038800   -0.0000038800
   0.0000111393   -0.0000010600    0.0000010600
   0.0000113293   -0.0000017300    0.0000017300
  -0.0000315807    0.0000053700    0.0000053700
   0.0000111293    0.0000007000    0.0000007000
   0.0000134493    0.0000018700    0.0000018700
   0.0010263293    0.0007266500    0.0007266500
  -0.0000094807    0.0000005800    0.0000005800
  -0.0000187507    0.0000097300    0.0000097300
  -0.0000104007    0.0000020600   -0.0000015600
  -0.0000088007    0.0000008400   -0.0000018600
  -0.0000062007    0.0000022800   -0.0000034300
  -0.0000228607    0.0000056300    0.0000201800
  -0.0000080507    0.0000001700   -0.0000028400
  -0.0000115807   -0.0000032300    0.0000179300
  -0.0000104007   -0.0000015600    0.0000020600
  -0.0000088007   -0.0000018600    0.0000008400
  -0.0000062007   -0.0000034300    0.0000022800
   0.0000076993   -0.0000010800   -0.0000010800
  -0.0000134807   -0.0000009900   -0.0000009900
  -0.0000119507   -0.0000029200   -0.0000029200
  -0.0000123507   -0.0000006600   -0.0000032500
  -0.0000113607    0.0000016000    0.0000019700
  -0.0000107007    0.0000105800    0.0000010900
  -0.0000228607    0.0000201800    0.0000056300
  -0.0000080507   -0.0000028400    0.0000001700
  -0.0000115807    0.0000179300   -0.0000032300
  -0.0000123507   -0.0000032500   -0.0000006600
  -0.0000113607    0.0000019700    0.0000016000
  -0.0000107007    0.0000010900    0.0000105800
   0.0000491593    0.0000174500    0.0000174500
  -0.0000097907    0.0000014100    0.0000014100
  -0.0000112607   -0.0000015500   -0.0000015500
   0.0000700393    0.0000539300    0.0000283100
   0.0000091093    0.0000019100   -0.0000020200
   0.0000687193   -0.0000483200    0.0000277600
   0.0000076693   -0.0000000000    0.0000000000
   0.0000108393   -0.0000000000    0.0000000000
   0.0000077993   -0.0000000000    0.0000000000
   0.0000700393   -0.0000539300   -0.0000283100
   0.0000091093   -0.0000019100    0.0000020200
   0.0000687193    0.0000483200   -0.0000277600
   0.0000141693   -0.0000105100    0.0000074600
   0.0000093993   -0.0000009700    0.0000017100
   0.0000142993    0.0000084500   -0.0000020000
   0.0000138693   -0.0000010700   -0.0000053100
   0.0000113693   -0.0000003500   -0.0000024400
   0.0000151793   -0.0000011200    0.0000009000
   0.0000136693    0.0000102100    0.0000045800
   0.0000091493    0.0000015800   -0.0000004400
   0.0000144193   -0.0000082000   -0.0000050200
   0.0000136693   -0.0000102100   -0.0000045800
   0.0000091493   -0.0000015800    0.0000004400
   0.0000144193    0.0000082000    0.0000050200
   0.0000138693    0.0000010700    0.0000053100
   0.0000113693    0.0000003500    0.0000024400
   0.0000151793    0.0000011200   -0.0000009000
   0.0000141693    0.0000105100   -0.0000074600
   0.0000093993    0.0000009700   -0.0000017100
   0.0000142993   -0.0000084500    0.0000020000
  -0.0000119407    0.0000015200   -0.0000182100
  -0.0000078707    0.0000034700    0.0000022700
  -0.0000233007    0.0000111500   -0.0000197000
  -0.0000068807    0.0000002900    0.0000013600
  -0.0000082207   -0.0000010800   -0.0000006000
  -0.0000099807   -0.0000006800   -0.0000008000
  -0.0000182607    0.0000073500   -0.0000073500
  -0.0000088107   -0.0000008300    0.0000008300
   0.0010167993    0.0007066100   -0.0007066100
  -0.0000127007    0.0000053700   -0.0000010000
  -0.0000110207   -0.0000038600   -0.0000023500
  -0.0000124107   -0.0000040700    0.0000030400
  -0.0000135007   -0.0000004100    0.0000004100
  -0.0000125507    0.0000011100   -0.0000011100
   0.0000092993    0.0000012200   -0.0000012200
  -0.0000068807   -0.0000013600   -0.0000002900
  -0.0000082207    0.0000006000    0.0000010800
  -0.0000099807    0.0000008000    0.0000006800
  -0.0000111207   -0.0000014200    0.0000014200
  -0.0000086507    0.0000009900   -0.0000009900
   0.0000499393    0.0000182900   -0.0000182900
  -0.0000127007    0.0000010000   -0.0000053700
  -0.0000110207    0.0000023500    0.0000038600
  -0.0000124107   -0.0000030400    0.0000040700
  -0.0000119407    0.0000182100   -0.0000015200
  -0.0000078707   -0.0000022700   -0.0000034700
  -0.0000233007    0.0000197000   -0.0000111500
   0.0000700393    0.0000283100    0.0000539300
   0.0000091093   -0.0000020200    0.0000019100
   0.0000687193    0.0000277600   -0.0000483200
   0.0000141693    0.0000074600   -0.0000105100
   0.0000093993    0.0000017100   -0.0000009700
   0.0000142993   -0.0000020000    0.0000084500
   0.0000136693   -0.0000045800   -0.0000102100
   0.0000091493    0.0000004400   -0.0000015800
   0.0000144193    0.0000050200    0.0000082000
   0.0000076693   -0.0000000000    0.0000000000
   0.0000108393   -0.0000000000    0.0000000000
   0.0000077993   -0.0000000000    0.0000000000
   0.0000138693   -0.0000053100   -0.0000010700
   0.0000113693   -0.0000024400   -0.0000003500
   0.0000151793    0.0000009000   -0.0000011200
   0.0000138693    0.0000053100    0.0000010700
   0.0000113693    0.0000024400    0.0000003500
   0.0000151793   -0.0000009000    0.0000011200
   0.0000700393   -0.0000283100   -0.0000539300
   0.0000091093    0.0000020200   -0.0000019100
   0.0000687193   -0.0000277600    0.0000483200
   0.0000136693    0.0000045800    0.0000102100
   0.0000091493   -0.0000004400    0.0000015800
   0.0000144193   -0.0000050200   -0.0000082000
   0.0000141693   -0.0000074600    0.0000105100
   0.0000093993   -0.0000017100    0.0000009700
   0.0000142993    0.0000020000   -0.0000084500
  -0.0000119407   -0.0000182100    0.0000015200
  -0.0000078707    0.0000022700    0.0000034700
  -0.0000233007   -0.0000197000    0.0000111500
  -0.0000127007   -0.0000010000    0.0000053700
  -0.0000110207   -0.0000023500   -0.0000038600
  -0.0000124107    0.0000030400   -0.0000040700
  -0.0000111207    0.0000014200   -0.0000014200
  -0.0000086507   -0.0000009900    0.0000009900
   0.0000499393   -0.0000182900    0.0000182900
  -0.0000068807    0.0000013600    0.0000002900
  -0.0000082207   -0.0000006000   -0.0000010800
  -0.0000099807   -0.0000008000   -0.0000006800
  -0.0000135007    0.0000004100   -0.0000004100
  -0.0000125507   -0.0000011100    0.0000011100
   0.0000092993   -0.0000012200    0.0000012200
  -0.0000127007   -0.0000053700    0.0000010000
  -0.0000110207    0.0000038600    0.0000023500
  -0.0000124107    0.0000040700   -0.0000030400
  -0.0000182607   -0.0000073500    0.0000073500
  -0.0000088107    0.0000008300   -0.0000008300
   0.0010167993   -0.0007066100    0.0007066100
  -0.0000068807   -0.0000002900   -0.0000013600
  -0.0000082207    0.0000010800    0.0000006000
  -0.0000099807    0.0000006800    0.0000008000
  -0.0000119407   -0.0000015200    0.0000182100
  -0.0000078707   -0.0000034700   -0.0000022700
  -0.0000233007   -0.0000111500    0.0000197000
  -0.0001222607   -0.0000269200   -0.0000269200
   0.0000106293    0.0000044500    0.0000044500
   0.0000112693   -0.0000050200   -0.0000050200
   0.0000090393    0.0000019100   -0.0000019200
   0.0000101293   -0.0000008200   -0.0000061800
   0.0000112793   -0.0000009500    0.0000013400
  -0.0001219007   -0.0000299600    0.0000299600
   0.0000110693   -0.0000071700    0.0000071700
   0.0000105593    0.0000020800   -0.0000020800
   0.0000090393   -0.0000019200    0.0000019100
   0.0000101293   -0.0000061800   -0.0000008200
   0.0000112793    0.0000013400   -0.0000009500
  -0.0000177107   -0.0000000000    0.0000000000
   0.0000120593   -0.0000000000    0.0000000000
   0.0000130393   -0.0000000000    0.0000000000
   0.0000090393    0.0000019200   -0.0000019100
   0.0000101293    0.0000061800    0.0000008200
   0.0000112793   -0.0000013400    0.0000009500
  -0.0001219007    0.0000299600   -0.0000299600
   0.0000110693    0.0000071700   -0.0000071700
   0.0000105593   -0.0000020800    0.0000020800
   0.0000090393   -0.0000019100    0.0000019200
   0.0000101293    0.0000008200    0.0000061800
   0.0000112793    0.0000009500   -0.0000013400
  -0.0001222607    0.0000269200    0.0000269200
   0.0000106293   -0.0000044500   -0.0000044500
   0.0000112693    0.0000050200    0.0000050200
   0.0000491593   -0.0000174500   -0.0000174500
  -0.0000097907   -0.0000014100   -0.0000014100
  -0.0000112607    0.0000015500    0.0000015500
  -0.0000123507    0.0000032500    0.0000006600
  -0.0000113607   -0.0000019700   -0.0000016000
  -0.0000107007   -0.0000010900   -0.0000105800
  -0.0000228607   -0.0000201800   -0.0000056300
  -0.0000080507    0.0000028400   -0.0000001700
  -0.0000115807   -0.0000179300    0.0000032300
  -0.0000123507    0.0000006600    0.0000032500
  -0.0000113607   -0.0000016000   -0.0000019700
  -0.0000107007   -0.0000105800   -0.0000010900
   0.0000076993    0.0000010800    0.0000010800
  -0.0000134807    0.0000009900    0.0000009900
  -0.0000119507    0.0000029200    0.0000029200
  -0.0000104007    0.0000015600   -0.0000020600
  -0.0000088007    0.0000018600   -0.0000008400
  -0.0000062007    0.0000034300   -0.0000022800
  -0.0000228607   -0.0000056300   -0.0000201800
  -0.0000080507   -0.0000001700    0.0000028400
  -0.0000115807    0.0000032300   -0.0000179300
  -0.0000104007   -0.0000020600    0.0000015600
  -0.0000088007   -0.0000008400    0.0000018600
  -0.0000062007   -0.0000022800    0.0000034300
   0.0010263293   -0.0007266500   -0.0007266500
  -0.0000094807   -0.0000005800   -0.0000005800
  -0.0000187507   -0.0000097300   -0.0000097300
