
     Program PWSCF v.6.8 starts on 15May2025 at  1: 3:20 

     This program is part of the open-source Quantum ESPRESSO suite
     for quantum simulation of materials; please cite
         "P. Giannozzi et al., J. Phys.:Condens. Matter 21 395502 (2009);
         "P. Giannozzi et al., J. Phys.:Condens. Matter 29 465901 (2017);
         "P. Giannozzi et al., J. Chem. Phys. 152 154105 (2020);
          URL http://www.quantum-espresso.org", 
     in publications or presentations arising from this work. More details at
     http://www.quantum-espresso.org/quote

     Parallel version (MPI & OpenMP), running on      56 processor cores
     Number of MPI processes:                56
     Threads/MPI process:                     1

     MPI processes distributed on     1 nodes
     R & G space division:  proc/nbgrp/npool/nimage =      56
     182523 MiB available memory on the printing compute node when the environment starts
 
     Reading input from supercell.in
Warning: card &CELL ignored
Warning: card / ignored

     Current dimensions of program PWSCF are:
     Max number of different atomic species (ntypx) = 10
     Max number of k-points (npk) =  40000
     Max angular momentum in pseudopotentials (lmaxx) =  4

     gamma-point specific algorithms are used
     Found symmetry operation: I + (  0.3333  0.0000  0.0000)
     This is a supercell, fractional translations are disabled
     Message from routine setup:
     using ibrav=0 with symmetry is DISCOURAGED, use correct ibrav instead

     Subspace diagonalization in iterative solution of the eigenvalue problem:
     one sub-group per band group will be used
     scalapack distributed-memory algorithm (size of sub-group:  7*  7 procs)

 
     Parallelization info
     --------------------
     sticks:   dense  smooth     PW     G-vecs:    dense   smooth      PW
     Min         362     362     90                39034    39034    4874
     Max         364     364     92                39051    39051    4888
     Sum       20361   20361   5089              2186337  2186337  273209
 
     Using Slab Decomposition
 


     bravais-lattice index     =            0
     lattice parameter (alat)  =      32.6545  a.u.
     unit-cell volume          =   34819.9244 (a.u.)^3
     number of atoms/cell      =          216
     number of atomic types    =            1
     number of electrons       =      3024.00
     number of Kohn-Sham states=         1814
     kinetic-energy cutoff     =      60.0000  Ry
     charge density cutoff     =     240.0000  Ry
     scf convergence threshold =      1.0E-08
     mixing beta               =       0.5000
     number of iterations used =            8  plain     mixing
     Exchange-correlation= PBE
                           (   1   4   3   4   0   0   0)

     celldm(1)=  32.654468  celldm(2)=   0.000000  celldm(3)=   0.000000
     celldm(4)=   0.000000  celldm(5)=   0.000000  celldm(6)=   0.000000

     crystal axes: (cart. coord. in units of alat)
               a(1) = (   1.000000   0.000000   0.000000 )  
               a(2) = (   0.000000   1.000000   0.000000 )  
               a(3) = (   0.000000   0.000000   1.000000 )  

     reciprocal axes: (cart. coord. in units 2 pi/alat)
               b(1) = (  1.000000  0.000000  0.000000 )  
               b(2) = (  0.000000  1.000000  0.000000 )  
               b(3) = (  0.000000  0.000000  1.000000 )  


     PseudoPot. # 1 for Ge read from file:
     ./Ge.upf
     MD5 check sum: 087fa14d6c89b52166990835c3b338da
     Pseudo is Norm-conserving + core correction, Zval = 14.0
     Generated using ONCVPSP code by D. R. Hamann
     Using radial grid of 1560 points,  6 beta functions with: 
                l(1) =   0
                l(2) =   0
                l(3) =   1
                l(4) =   1
                l(5) =   2
                l(6) =   2

     atomic species   valence    mass     pseudopotential
        Ge            14.00    72.64000     Ge( 1.00)

     24 Sym. Ops. (no inversion) found



   Cartesian axes

     site n.     atom                  positions (alat units)
         1           Ge  tau(   1) = (   0.0000000   0.0000000   0.0000000  )
         2           Ge  tau(   2) = (   0.3333333   0.0000000   0.0000000  )
         3           Ge  tau(   3) = (   0.6666667   0.0000000   0.0000000  )
         4           Ge  tau(   4) = (   0.0000000   0.3333333   0.0000000  )
         5           Ge  tau(   5) = (   0.3333333   0.3333333   0.0000000  )
         6           Ge  tau(   6) = (   0.6666667   0.3333333   0.0000000  )
         7           Ge  tau(   7) = (   0.0000000   0.6666667   0.0000000  )
         8           Ge  tau(   8) = (   0.3333333   0.6666667   0.0000000  )
         9           Ge  tau(   9) = (   0.6666667   0.6666667   0.0000000  )
        10           Ge  tau(  10) = (   0.0000000   0.0000000   0.3333333  )
        11           Ge  tau(  11) = (   0.3333333   0.0000000   0.3333333  )
        12           Ge  tau(  12) = (   0.6666667   0.0000000   0.3333333  )
        13           Ge  tau(  13) = (   0.0000000   0.3333333   0.3333333  )
        14           Ge  tau(  14) = (   0.3333333   0.3333333   0.3333333  )
        15           Ge  tau(  15) = (   0.6666667   0.3333333   0.3333333  )
        16           Ge  tau(  16) = (   0.0000000   0.6666667   0.3333333  )
        17           Ge  tau(  17) = (   0.3333333   0.6666667   0.3333333  )
        18           Ge  tau(  18) = (   0.6666667   0.6666667   0.3333333  )
        19           Ge  tau(  19) = (   0.0000000   0.0000000   0.6666667  )
        20           Ge  tau(  20) = (   0.3333333   0.0000000   0.6666667  )
        21           Ge  tau(  21) = (   0.6666667   0.0000000   0.6666667  )
        22           Ge  tau(  22) = (   0.0000000   0.3333333   0.6666667  )
        23           Ge  tau(  23) = (   0.3333333   0.3333333   0.6666667  )
        24           Ge  tau(  24) = (   0.6666667   0.3333333   0.6666667  )
        25           Ge  tau(  25) = (   0.0000000   0.6666667   0.6666667  )
        26           Ge  tau(  26) = (   0.3333333   0.6666667   0.6666667  )
        27           Ge  tau(  27) = (   0.6666667   0.6666667   0.6666667  )
        28           Ge  tau(  28) = (   0.0833333   0.0833333   0.0833333  )
        29           Ge  tau(  29) = (   0.4166667   0.0833333   0.0833333  )
        30           Ge  tau(  30) = (   0.7500000   0.0833333   0.0833333  )
        31           Ge  tau(  31) = (   0.0833333   0.4166667   0.0833333  )
        32           Ge  tau(  32) = (   0.4166667   0.4166667   0.0833333  )
        33           Ge  tau(  33) = (   0.7500000   0.4166667   0.0833333  )
        34           Ge  tau(  34) = (   0.0833333   0.7500000   0.0833333  )
        35           Ge  tau(  35) = (   0.4166667   0.7500000   0.0833333  )
        36           Ge  tau(  36) = (   0.7500000   0.7500000   0.0833333  )
        37           Ge  tau(  37) = (   0.0833333   0.0833333   0.4166667  )
        38           Ge  tau(  38) = (   0.4166667   0.0833333   0.4166667  )
        39           Ge  tau(  39) = (   0.7500000   0.0833333   0.4166667  )
        40           Ge  tau(  40) = (   0.0833333   0.4166667   0.4166667  )
        41           Ge  tau(  41) = (   0.4166667   0.4166667   0.4166667  )
        42           Ge  tau(  42) = (   0.7500000   0.4166667   0.4166667  )
        43           Ge  tau(  43) = (   0.0833333   0.7500000   0.4166667  )
        44           Ge  tau(  44) = (   0.4166667   0.7500000   0.4166667  )
        45           Ge  tau(  45) = (   0.7500000   0.7500000   0.4166667  )
        46           Ge  tau(  46) = (   0.0833333   0.0833333   0.7500000  )
        47           Ge  tau(  47) = (   0.4166667   0.0833333   0.7500000  )
        48           Ge  tau(  48) = (   0.7500000   0.0833333   0.7500000  )
        49           Ge  tau(  49) = (   0.0833333   0.4166667   0.7500000  )
        50           Ge  tau(  50) = (   0.4166667   0.4166667   0.7500000  )
        51           Ge  tau(  51) = (   0.7500000   0.4166667   0.7500000  )
        52           Ge  tau(  52) = (   0.0833333   0.7500000   0.7500000  )
        53           Ge  tau(  53) = (   0.4166667   0.7500000   0.7500000  )
        54           Ge  tau(  54) = (   0.7500000   0.7500000   0.7500000  )
        55           Ge  tau(  55) = (   0.1666667   0.1666667   0.0000000  )
        56           Ge  tau(  56) = (   0.5000000   0.1666667   0.0000000  )
        57           Ge  tau(  57) = (   0.8333333   0.1666667   0.0000000  )
        58           Ge  tau(  58) = (   0.1666667   0.5000000   0.0000000  )
        59           Ge  tau(  59) = (   0.5000000   0.5000000   0.0000000  )
        60           Ge  tau(  60) = (   0.8333333   0.5000000   0.0000000  )
        61           Ge  tau(  61) = (   0.1666667   0.8333333   0.0000000  )
        62           Ge  tau(  62) = (   0.5000000   0.8333333   0.0000000  )
        63           Ge  tau(  63) = (   0.8333333   0.8333333   0.0000000  )
        64           Ge  tau(  64) = (   0.1666667   0.1666667   0.3333333  )
        65           Ge  tau(  65) = (   0.5000000   0.1666667   0.3333333  )
        66           Ge  tau(  66) = (   0.8333333   0.1666667   0.3333333  )
        67           Ge  tau(  67) = (   0.1666667   0.5000000   0.3333333  )
        68           Ge  tau(  68) = (   0.5000000   0.5000000   0.3333333  )
        69           Ge  tau(  69) = (   0.8333333   0.5000000   0.3333333  )
        70           Ge  tau(  70) = (   0.1666667   0.8333333   0.3333333  )
        71           Ge  tau(  71) = (   0.5000000   0.8333333   0.3333333  )
        72           Ge  tau(  72) = (   0.8333333   0.8333333   0.3333333  )
        73           Ge  tau(  73) = (   0.1666667   0.1666667   0.6666667  )
        74           Ge  tau(  74) = (   0.5000000   0.1666667   0.6666667  )
        75           Ge  tau(  75) = (   0.8333333   0.1666667   0.6666667  )
        76           Ge  tau(  76) = (   0.1666667   0.5000000   0.6666667  )
        77           Ge  tau(  77) = (   0.5000000   0.5000000   0.6666667  )
        78           Ge  tau(  78) = (   0.8333333   0.5000000   0.6666667  )
        79           Ge  tau(  79) = (   0.1666667   0.8333333   0.6666667  )
        80           Ge  tau(  80) = (   0.5000000   0.8333333   0.6666667  )
        81           Ge  tau(  81) = (   0.8333333   0.8333333   0.6666667  )
        82           Ge  tau(  82) = (   0.2500000   0.2500000   0.0833333  )
        83           Ge  tau(  83) = (   0.5833333   0.2500000   0.0833333  )
        84           Ge  tau(  84) = (   0.9166667   0.2500000   0.0833333  )
        85           Ge  tau(  85) = (   0.2500000   0.5833333   0.0833333  )
        86           Ge  tau(  86) = (   0.5833333   0.5833333   0.0833333  )
        87           Ge  tau(  87) = (   0.9166667   0.5833333   0.0833333  )
        88           Ge  tau(  88) = (   0.2500000   0.9166667   0.0833333  )
        89           Ge  tau(  89) = (   0.5833333   0.9166667   0.0833333  )
        90           Ge  tau(  90) = (   0.9166667   0.9166667   0.0833333  )
        91           Ge  tau(  91) = (   0.2500000   0.2500000   0.4166667  )
        92           Ge  tau(  92) = (   0.5833333   0.2500000   0.4166667  )
        93           Ge  tau(  93) = (   0.9166667   0.2500000   0.4166667  )
        94           Ge  tau(  94) = (   0.2500000   0.5833333   0.4166667  )
        95           Ge  tau(  95) = (   0.5833333   0.5833333   0.4166667  )
        96           Ge  tau(  96) = (   0.9166667   0.5833333   0.4166667  )
        97           Ge  tau(  97) = (   0.2500000   0.9166667   0.4166667  )
        98           Ge  tau(  98) = (   0.5833333   0.9166667   0.4166667  )
        99           Ge  tau(  99) = (   0.9166667   0.9166667   0.4166667  )
       100           Ge  tau( 100) = (   0.2500000   0.2500000   0.7500000  )
       101           Ge  tau( 101) = (   0.5833333   0.2500000   0.7500000  )
       102           Ge  tau( 102) = (   0.9166667   0.2500000   0.7500000  )
       103           Ge  tau( 103) = (   0.2500000   0.5833333   0.7500000  )
       104           Ge  tau( 104) = (   0.5833333   0.5833333   0.7500000  )
       105           Ge  tau( 105) = (   0.9166667   0.5833333   0.7500000  )
       106           Ge  tau( 106) = (   0.2500000   0.9166667   0.7500000  )
       107           Ge  tau( 107) = (   0.5833333   0.9166667   0.7500000  )
       108           Ge  tau( 108) = (   0.9166667   0.9166667   0.7500000  )
       109           Ge  tau( 109) = (   0.1666667   0.0000000   0.1666667  )
       110           Ge  tau( 110) = (   0.5000000   0.0000000   0.1666667  )
       111           Ge  tau( 111) = (   0.8333333   0.0000000   0.1666667  )
       112           Ge  tau( 112) = (   0.1666667   0.3333333   0.1666667  )
       113           Ge  tau( 113) = (   0.5000000   0.3333333   0.1666667  )
       114           Ge  tau( 114) = (   0.8333333   0.3333333   0.1666667  )
       115           Ge  tau( 115) = (   0.1666667   0.6666667   0.1666667  )
       116           Ge  tau( 116) = (   0.5000000   0.6666667   0.1666667  )
       117           Ge  tau( 117) = (   0.8333333   0.6666667   0.1666667  )
       118           Ge  tau( 118) = (   0.1666667   0.0000000   0.5000000  )
       119           Ge  tau( 119) = (   0.5000000   0.0000000   0.5000000  )
       120           Ge  tau( 120) = (   0.8333333   0.0000000   0.5000000  )
       121           Ge  tau( 121) = (   0.1666667   0.3333333   0.5000000  )
       122           Ge  tau( 122) = (   0.5000000   0.3333333   0.5000000  )
       123           Ge  tau( 123) = (   0.8333333   0.3333333   0.5000000  )
       124           Ge  tau( 124) = (   0.1666667   0.6666667   0.5000000  )
       125           Ge  tau( 125) = (   0.5000000   0.6666667   0.5000000  )
       126           Ge  tau( 126) = (   0.8333333   0.6666667   0.5000000  )
       127           Ge  tau( 127) = (   0.1666667   0.0000000   0.8333333  )
       128           Ge  tau( 128) = (   0.5000000   0.0000000   0.8333333  )
       129           Ge  tau( 129) = (   0.8333333   0.0000000   0.8333333  )
       130           Ge  tau( 130) = (   0.1666667   0.3333333   0.8333333  )
       131           Ge  tau( 131) = (   0.5000000   0.3333333   0.8333333  )
       132           Ge  tau( 132) = (   0.8333333   0.3333333   0.8333333  )
       133           Ge  tau( 133) = (   0.1666667   0.6666667   0.8333333  )
       134           Ge  tau( 134) = (   0.5000000   0.6666667   0.8333333  )
       135           Ge  tau( 135) = (   0.8333333   0.6666667   0.8333333  )
       136           Ge  tau( 136) = (   0.2500000   0.0833333   0.2500000  )
       137           Ge  tau( 137) = (   0.5833333   0.0833333   0.2500000  )
       138           Ge  tau( 138) = (   0.9166667   0.0833333   0.2500000  )
       139           Ge  tau( 139) = (   0.2500000   0.4166667   0.2500000  )
       140           Ge  tau( 140) = (   0.5833333   0.4166667   0.2500000  )
       141           Ge  tau( 141) = (   0.9166667   0.4166667   0.2500000  )
       142           Ge  tau( 142) = (   0.2500000   0.7500000   0.2500000  )
       143           Ge  tau( 143) = (   0.5833333   0.7500000   0.2500000  )
       144           Ge  tau( 144) = (   0.9166667   0.7500000   0.2500000  )
       145           Ge  tau( 145) = (   0.2500000   0.0833333   0.5833333  )
       146           Ge  tau( 146) = (   0.5833333   0.0833333   0.5833333  )
       147           Ge  tau( 147) = (   0.9166667   0.0833333   0.5833333  )
       148           Ge  tau( 148) = (   0.2500000   0.4166667   0.5833333  )
       149           Ge  tau( 149) = (   0.5833333   0.4166667   0.5833333  )
       150           Ge  tau( 150) = (   0.9166667   0.4166667   0.5833333  )
       151           Ge  tau( 151) = (   0.2500000   0.7500000   0.5833333  )
       152           Ge  tau( 152) = (   0.5833333   0.7500000   0.5833333  )
       153           Ge  tau( 153) = (   0.9166667   0.7500000   0.5833333  )
       154           Ge  tau( 154) = (   0.2500000   0.0833333   0.9166667  )
       155           Ge  tau( 155) = (   0.5833333   0.0833333   0.9166667  )
       156           Ge  tau( 156) = (   0.9166667   0.0833333   0.9166667  )
       157           Ge  tau( 157) = (   0.2500000   0.4166667   0.9166667  )
       158           Ge  tau( 158) = (   0.5833333   0.4166667   0.9166667  )
       159           Ge  tau( 159) = (   0.9166667   0.4166667   0.9166667  )
       160           Ge  tau( 160) = (   0.2500000   0.7500000   0.9166667  )
       161           Ge  tau( 161) = (   0.5833333   0.7500000   0.9166667  )
       162           Ge  tau( 162) = (   0.9166667   0.7500000   0.9166667  )
       163           Ge  tau( 163) = (   0.0000000   0.1666667   0.1666667  )
       164           Ge  tau( 164) = (   0.3333333   0.1666667   0.1666667  )
       165           Ge  tau( 165) = (   0.6666667   0.1666667   0.1666667  )
       166           Ge  tau( 166) = (   0.0000000   0.5000000   0.1666667  )
       167           Ge  tau( 167) = (   0.3333333   0.5000000   0.1666667  )
       168           Ge  tau( 168) = (   0.6666667   0.5000000   0.1666667  )
       169           Ge  tau( 169) = (   0.0000000   0.8333333   0.1666667  )
       170           Ge  tau( 170) = (   0.3333333   0.8333333   0.1666667  )
       171           Ge  tau( 171) = (   0.6666667   0.8333333   0.1666667  )
       172           Ge  tau( 172) = (   0.0000000   0.1666667   0.5000000  )
       173           Ge  tau( 173) = (   0.3333333   0.1666667   0.5000000  )
       174           Ge  tau( 174) = (   0.6666667   0.1666667   0.5000000  )
       175           Ge  tau( 175) = (   0.0000000   0.5000000   0.5000000  )
       176           Ge  tau( 176) = (   0.3333333   0.5000000   0.5000000  )
       177           Ge  tau( 177) = (   0.6666667   0.5000000   0.5000000  )
       178           Ge  tau( 178) = (   0.0000000   0.8333333   0.5000000  )
       179           Ge  tau( 179) = (   0.3333333   0.8333333   0.5000000  )
       180           Ge  tau( 180) = (   0.6666667   0.8333333   0.5000000  )
       181           Ge  tau( 181) = (   0.0000000   0.1666667   0.8333333  )
       182           Ge  tau( 182) = (   0.3333333   0.1666667   0.8333333  )
       183           Ge  tau( 183) = (   0.6666667   0.1666667   0.8333333  )
       184           Ge  tau( 184) = (   0.0000000   0.5000000   0.8333333  )
       185           Ge  tau( 185) = (   0.3333333   0.5000000   0.8333333  )
       186           Ge  tau( 186) = (   0.6666667   0.5000000   0.8333333  )
       187           Ge  tau( 187) = (   0.0000000   0.8333333   0.8333333  )
       188           Ge  tau( 188) = (   0.3333333   0.8333333   0.8333333  )
       189           Ge  tau( 189) = (   0.6666667   0.8333333   0.8333333  )
       190           Ge  tau( 190) = (   0.0833333   0.2500000   0.2500000  )
       191           Ge  tau( 191) = (   0.4166667   0.2500000   0.2500000  )
       192           Ge  tau( 192) = (   0.7500000   0.2500000   0.2500000  )
       193           Ge  tau( 193) = (   0.0833333   0.5833333   0.2500000  )
       194           Ge  tau( 194) = (   0.4166667   0.5833333   0.2500000  )
       195           Ge  tau( 195) = (   0.7500000   0.5833333   0.2500000  )
       196           Ge  tau( 196) = (   0.0833333   0.9166667   0.2500000  )
       197           Ge  tau( 197) = (   0.4166667   0.9166667   0.2500000  )
       198           Ge  tau( 198) = (   0.7500000   0.9166667   0.2500000  )
       199           Ge  tau( 199) = (   0.0833333   0.2500000   0.5833333  )
       200           Ge  tau( 200) = (   0.4166667   0.2500000   0.5833333  )
       201           Ge  tau( 201) = (   0.7500000   0.2500000   0.5833333  )
       202           Ge  tau( 202) = (   0.0833333   0.5833333   0.5833333  )
       203           Ge  tau( 203) = (   0.4166667   0.5833333   0.5833333  )
       204           Ge  tau( 204) = (   0.7500000   0.5833333   0.5833333  )
       205           Ge  tau( 205) = (   0.0833333   0.9166667   0.5833333  )
       206           Ge  tau( 206) = (   0.4166667   0.9166667   0.5833333  )
       207           Ge  tau( 207) = (   0.7500000   0.9166667   0.5833333  )
       208           Ge  tau( 208) = (   0.0833333   0.2500000   0.9166667  )
       209           Ge  tau( 209) = (   0.4166667   0.2500000   0.9166667  )
       210           Ge  tau( 210) = (   0.7500000   0.2500000   0.9166667  )
       211           Ge  tau( 211) = (   0.0833333   0.5833333   0.9166667  )
       212           Ge  tau( 212) = (   0.4166667   0.5833333   0.9166667  )
       213           Ge  tau( 213) = (   0.7500000   0.5833333   0.9166667  )
       214           Ge  tau( 214) = (   0.0833333   0.9166667   0.9166667  )
       215           Ge  tau( 215) = (   0.4166667   0.9166667   0.9166667  )
       216           Ge  tau( 216) = (   0.7500000   0.9166667   0.9166667  )

     number of k points=     1  Gaussian smearing, width (Ry)=  0.0100
                       cart. coord. in units 2pi/alat
        k(    1) = (   0.0000000   0.0000000   0.0000000), wk =   2.0000000

     Dense  grid:  1093169 G-vectors     FFT dimensions: ( 162, 162, 162)

     Estimated max dynamical RAM per process >     556.97 MB

     Estimated total dynamical RAM >      30.46 GB

     Initial potential from superposition of free atoms

     starting charge 3023.82226, renormalised to 3024.00000
     Starting wfcs are 1944 randomized atomic wfcs

     total cpu time spent up to now is       12.4 secs

     Self-consistent Calculation

     iteration #  1     ecut=    60.00 Ry     beta= 0.50
     Davidson diagonalization with overlap
     ethr =  1.00E-02,  avg # of iterations =  5.0

     Threshold (ethr) on eigenvalues was too large:
     Diagonalizing with lowered threshold

     Davidson diagonalization with overlap
     ethr =  1.13E-04,  avg # of iterations =  9.0

     total cpu time spent up to now is      118.1 secs

     total energy              =  -38579.18907046 Ry
     estimated scf accuracy    <       3.79354859 Ry

     iteration #  2     ecut=    60.00 Ry     beta= 0.50
     Davidson diagonalization with overlap
     ethr =  1.25E-04,  avg # of iterations =  1.0

     total cpu time spent up to now is      147.9 secs

     total energy              =  -38579.16765514 Ry
     estimated scf accuracy    <       0.73278356 Ry

     iteration #  3     ecut=    60.00 Ry     beta= 0.50
     Davidson diagonalization with overlap
     ethr =  2.42E-05,  avg # of iterations =  2.0

     total cpu time spent up to now is      182.2 secs

     total energy              =  -38579.22144333 Ry
     estimated scf accuracy    <       0.01311745 Ry

     iteration #  4     ecut=    60.00 Ry     beta= 0.50
     Davidson diagonalization with overlap
     ethr =  4.34E-07,  avg # of iterations =  5.0

     total cpu time spent up to now is      234.9 secs

     total energy              =  -38579.22402820 Ry
     estimated scf accuracy    <       0.00108792 Ry

     iteration #  5     ecut=    60.00 Ry     beta= 0.50
     Davidson diagonalization with overlap
     ethr =  3.60E-08,  avg # of iterations =  3.0

     total cpu time spent up to now is      272.3 secs

     total energy              =  -38579.22357462 Ry
     estimated scf accuracy    <       0.00929179 Ry

     iteration #  6     ecut=    60.00 Ry     beta= 0.50
     Davidson diagonalization with overlap
     ethr =  3.60E-08,  avg # of iterations =  2.0

     total cpu time spent up to now is      307.6 secs

     total energy              =  -38579.22440190 Ry
     estimated scf accuracy    <       0.00021773 Ry

     iteration #  7     ecut=    60.00 Ry     beta= 0.50
     Davidson diagonalization with overlap
     ethr =  7.20E-09,  avg # of iterations =  3.0

     total cpu time spent up to now is      342.9 secs

     total energy              =  -38579.22443714 Ry
     estimated scf accuracy    <       0.00010112 Ry

     iteration #  8     ecut=    60.00 Ry     beta= 0.50
     Davidson diagonalization with overlap
     ethr =  3.34E-09,  avg # of iterations =  2.0

     total cpu time spent up to now is      377.3 secs

     total energy              =  -38579.22444926 Ry
     estimated scf accuracy    <       0.00001012 Ry

     iteration #  9     ecut=    60.00 Ry     beta= 0.50
     Davidson diagonalization with overlap
     ethr =  3.35E-10,  avg # of iterations =  3.0

     total cpu time spent up to now is      413.4 secs

     total energy              =  -38579.22445151 Ry
     estimated scf accuracy    <       0.00000112 Ry

     iteration # 10     ecut=    60.00 Ry     beta= 0.50
     Davidson diagonalization with overlap
     ethr =  3.70E-11,  avg # of iterations =  3.0

     total cpu time spent up to now is      450.9 secs

     total energy              =  -38579.22445202 Ry
     estimated scf accuracy    <       0.00000056 Ry

     iteration # 11     ecut=    60.00 Ry     beta= 0.50
     Davidson diagonalization with overlap
     ethr =  1.85E-11,  avg # of iterations =  3.0

     total cpu time spent up to now is      489.0 secs

     total energy              =  -38579.22445198 Ry
     estimated scf accuracy    <       0.00000073 Ry

     iteration # 12     ecut=    60.00 Ry     beta= 0.50
     Davidson diagonalization with overlap
     ethr =  1.85E-11,  avg # of iterations =  2.0

     total cpu time spent up to now is      523.7 secs

     total energy              =  -38579.22445210 Ry
     estimated scf accuracy    <       0.00000070 Ry

     iteration # 13     ecut=    60.00 Ry     beta= 0.50
     Davidson diagonalization with overlap
     ethr =  1.85E-11,  avg # of iterations =  2.0

     total cpu time spent up to now is      557.7 secs

     total energy              =  -38579.22445219 Ry
     estimated scf accuracy    <       0.00000004 Ry

     iteration # 14     ecut=    60.00 Ry     beta= 0.50
     Davidson diagonalization with overlap
     ethr =  1.20E-12,  avg # of iterations =  3.0

     total cpu time spent up to now is      594.1 secs

     total energy              =  -38579.22445219 Ry
     estimated scf accuracy    <       0.00000001 Ry

     iteration # 15     ecut=    60.00 Ry     beta= 0.50
     Davidson diagonalization with overlap
     ethr =  4.19E-13,  avg # of iterations =  3.0

     total cpu time spent up to now is      630.1 secs

     End of self-consistent calculation

          k = 0.0000 0.0000 0.0000 (136605 PWs)   bands (ev):

   -16.0874 -16.0874 -16.0874 -16.0874 -16.0874 -16.0874 -16.0874 -16.0874
   -16.0874 -16.0874 -16.0874 -16.0874 -16.0753 -16.0753 -16.0753 -16.0753
   -16.0753 -16.0753 -16.0753 -16.0753 -16.0753 -16.0753 -16.0753 -16.0753
   -16.0737 -16.0737 -16.0737 -16.0737 -16.0737 -16.0737 -16.0737 -16.0737
   -16.0737 -16.0737 -16.0737 -16.0737 -16.0737 -16.0737 -16.0737 -16.0737
   -16.0737 -16.0737 -16.0737 -16.0737 -16.0737 -16.0737 -16.0737 -16.0737
   -16.0719 -16.0719 -16.0719 -16.0719 -16.0719 -16.0719 -16.0719 -16.0719
   -16.0719 -16.0719 -16.0719 -16.0719 -16.0719 -16.0719 -16.0719 -16.0719
   -16.0719 -16.0719 -16.0719 -16.0719 -16.0719 -16.0719 -16.0719 -16.0719
   -16.0689 -16.0689 -16.0689 -16.0689 -16.0689 -16.0689 -16.0689 -16.0689
   -16.0689 -16.0689 -16.0689 -16.0689 -16.0688 -16.0688 -16.0688 -16.0688
   -16.0688 -16.0688 -16.0688 -16.0688 -16.0688 -16.0688 -16.0688 -16.0688
   -16.0687 -16.0687 -16.0687 -16.0687 -16.0687 -16.0687 -16.0687 -16.0687
   -16.0687 -16.0687 -16.0687 -16.0687 -16.0687 -16.0687 -16.0687 -16.0687
   -16.0687 -16.0687 -16.0687 -16.0687 -16.0687 -16.0687 -16.0687 -16.0687
   -16.0657 -16.0657 -16.0657 -16.0657 -16.0657 -16.0657 -16.0657 -16.0657
   -16.0657 -16.0657 -16.0657 -16.0657 -16.0603 -16.0603 -16.0603 -16.0603
   -16.0603 -16.0603 -16.0603 -16.0603 -16.0603 -16.0603 -16.0603 -16.0603
   -16.0603 -16.0603 -16.0603 -16.0603 -16.0596 -16.0596 -16.0596 -16.0596
   -16.0596 -16.0596 -16.0596 -16.0596 -16.0596 -16.0596 -16.0596 -16.0596
   -16.0596 -16.0596 -16.0596 -16.0596 -16.0596 -16.0596 -16.0596 -16.0596
   -16.0596 -16.0596 -16.0596 -16.0596 -16.0579 -16.0579 -16.0579 -16.0579
   -16.0579 -16.0579 -16.0564 -16.0564 -16.0564 -16.0564 -16.0564 -16.0564
   -16.0564 -16.0564 -16.0564 -16.0564 -16.0564 -16.0564 -16.0538 -16.0538
   -16.0538 -16.0538 -16.0538 -16.0538 -16.0538 -16.0538 -16.0538 -16.0538
   -16.0538 -16.0538 -16.0515 -16.0515 -16.0515 -16.0515 -16.0515 -16.0515
   -16.0515 -16.0515 -16.0515 -16.0515 -16.0515 -16.0515 -16.0485 -16.0485
   -16.0485 -16.0452 -16.0452 -16.0452 -16.0452 -16.0452 -16.0452 -16.0296
   -16.0296 -16.0281 -16.0281 -16.0281 -16.0281 -16.0281 -16.0281 -16.0281
   -16.0281 -16.0281 -16.0281 -16.0281 -16.0281 -16.0272 -16.0272 -16.0272
   -16.0272 -16.0272 -16.0272 -16.0272 -16.0272 -16.0217 -16.0217 -16.0217
   -16.0217 -16.0217 -16.0217 -16.0038 -16.0038 -16.0038 -16.0038 -16.0038
   -16.0038 -16.0038 -16.0038 -16.0038 -16.0038 -16.0038 -16.0038 -16.0038
   -16.0038 -16.0038 -16.0038 -16.0038 -16.0038 -16.0038 -16.0038 -16.0038
   -16.0038 -16.0038 -16.0038 -16.0010 -16.0010 -16.0010 -16.0010 -16.0010
   -16.0010 -16.0010 -16.0009 -16.0009 -16.0009 -16.0009 -16.0009 -16.0009
   -16.0009 -16.0009 -16.0009 -16.0009 -16.0009 -16.0009 -16.0009 -16.0009
   -16.0009 -16.0009 -16.0009 -15.9979 -15.9979 -15.9979 -15.9979 -15.9979
   -15.9979 -15.9939 -15.9939 -15.9939 -15.9939 -15.9939 -15.9939 -15.9939
   -15.9939 -15.9939 -15.9939 -15.9939 -15.9939 -15.9866 -15.9866 -15.9866
   -15.9866 -15.9866 -15.9866 -15.9858 -15.9858 -15.9858 -15.9858 -15.9858
   -15.9858 -15.9858 -15.9858 -15.9858 -15.9858 -15.9858 -15.9858 -15.9813
   -15.9813 -15.9812 -15.9812 -15.9812 -15.9812 -15.9789 -15.9789 -15.9789
   -15.9789 -15.9789 -15.9789 -15.9789 -15.9789 -15.9789 -15.9789 -15.9789
   -15.9789 -15.9789 -15.9789 -15.9789 -15.9789 -15.9686 -15.9686 -15.9686
   -15.9686 -15.9686 -15.9686 -15.9686 -15.9686 -15.9686 -15.9686 -15.9686
   -15.9686 -15.9686 -15.9686 -15.9686 -15.9686 -15.9686 -15.9686 -15.9686
   -15.9686 -15.9686 -15.9686 -15.9686 -15.9686 -15.9681 -15.9681 -15.9681
   -15.9681 -15.9681 -15.9681 -15.9681 -15.9681 -15.9681 -15.9681 -15.9681
   -15.9681 -15.9579 -15.9579 -15.9579 -15.9579 -15.9579 -15.9579 -15.9579
   -15.9579 -15.9579 -15.9579 -15.9579 -15.9579 -15.9579 -15.9579 -15.9579
   -15.9579 -15.9579 -15.9579 -15.9579 -15.9579 -15.9579 -15.9579 -15.9579
   -15.9579 -15.9538 -15.9538 -15.9538 -15.9538 -15.9538 -15.9538 -15.9538
   -15.9538 -15.9538 -15.9538 -15.9538 -15.9538 -15.9538 -15.9538 -15.9538
   -15.9538 -15.9538 -15.9538 -15.9538 -15.9538 -15.9538 -15.9538 -15.9538
   -15.9538 -15.9536 -15.9536 -15.9536 -15.9536 -15.9536 -15.9536 -15.9499
   -15.9499 -15.9499 -15.9499 -15.9499 -15.9499 -15.9499 -15.9499 -15.9499
   -15.9499 -15.9499 -15.9499 -15.9499 -15.9499 -15.9499 -15.9499 -15.9499
   -15.9499 -15.9499 -15.9499 -15.9499 -15.9499 -15.9499 -15.9499 -15.9347
   -15.9347 -15.9347 -15.9347 -15.9347 -15.9347 -15.9347 -15.9347 -15.9347
   -15.9347 -15.9347 -15.9347 -15.9291 -15.9291 -15.9291 -15.9291 -15.9291
   -15.9291 -15.9291 -15.9291 -15.9291 -15.9291 -15.9291 -15.9291 -15.9250
   -15.9250 -15.9250 -15.9250 -15.9250 -15.9250 -15.9250 -15.9250 -15.9250
   -15.9250 -15.9250 -15.9250 -15.9250 -15.9250 -15.9250 -15.9250 -15.9250
   -15.9250 -15.9250 -15.9250 -15.9250 -15.9250 -15.9250 -15.9250 -15.9230
   -15.9230 -15.9230 -15.9230 -15.9230 -15.9230 -15.9185 -15.9185 -15.9185
   -15.9185 -15.9185 -15.9185 -15.9185 -15.9185 -15.9185 -15.9185 -15.9185
   -15.9185 -15.9129 -15.9129 -15.9129 -15.9129 -15.9129 -15.9129 -15.9114
   -15.9114 -15.9114 -15.9114 -15.9114 -15.9114 -15.9114 -15.9114 -15.9114
   -15.9114 -15.9114 -15.9114 -15.9114 -15.9114 -15.9114 -15.9114 -15.9114
   -15.9114 -15.9114 -15.9114 -15.9114 -15.9114 -15.9114 -15.9114 -15.9100
   -15.9100 -15.9100 -15.9100 -15.9100 -15.9100 -15.9100 -15.9100 -15.9100
   -15.9100 -15.9100 -15.9100 -15.9099 -15.9099 -15.9099 -15.9099 -15.9099
   -15.9099 -15.9099 -15.9099 -15.9099 -15.9099 -15.9099 -15.9099 -15.9032
   -15.9032 -15.9032 -15.9032 -15.9032 -15.9032 -15.9032 -15.9032 -15.9032
   -15.9032 -15.9032 -15.9032 -15.8999 -15.8999 -15.8999 -15.8998 -15.8998
   -15.8998 -15.8871 -15.8871 -15.8871 -15.8871 -15.8871 -15.8871 -15.8871
   -15.8871 -15.8871 -15.8871 -15.8871 -15.8871 -15.8871 -15.8871 -15.8871
   -15.8871 -15.8871 -15.8871 -15.8871 -15.8871 -15.8871 -15.8871 -15.8871
   -15.8871 -15.8802 -15.8802 -15.8802 -15.8802 -15.8802 -15.8802 -15.8802
   -15.8802 -15.8802 -15.8802 -15.8802 -15.8802 -15.8802 -15.8802 -15.8802
   -15.8802 -15.8802 -15.8802 -15.8802 -15.8802 -15.8802 -15.8802 -15.8802
   -15.8802 -15.8685 -15.8685 -15.8685 -15.8685 -15.8685 -15.8685 -15.8685
   -15.8685 -15.8685 -15.8685 -15.8685 -15.8685 -15.8670 -15.8670 -15.8670
   -15.8670 -15.8670 -15.8670 -15.8665 -15.8665 -15.8665 -15.8665 -15.8665
   -15.8665 -15.8665 -15.8665 -15.8665 -15.8665 -15.8665 -15.8665 -15.8659
   -15.8659 -15.8659 -15.8659 -15.8659 -15.8659 -15.8646 -15.8646 -15.8646
   -15.8646 -15.8646 -15.8646 -15.8646 -15.8646 -15.8646 -15.8646 -15.8646
   -15.8646 -15.8646 -15.8646 -15.8646 -15.8646 -15.8646 -15.8646 -15.8646
   -15.8646 -15.8646 -15.8646 -15.8645 -15.8645 -15.8644 -15.8644 -15.8644
   -15.8644 -15.8644 -15.8644 -15.8644 -15.8644 -15.8644 -15.8644 -15.8644
   -15.8644 -15.8644 -15.8644 -15.8644 -15.8644 -15.8644 -15.8644 -15.8644
   -15.8644 -15.8644 -15.8644 -15.8644 -15.8644 -15.8568 -15.8568 -15.8568
   -15.8568 -15.8568 -15.8568 -15.8568 -15.8568 -15.8568 -15.8568 -15.8568
   -15.8568 -15.8568 -15.8568 -15.8568 -15.8568 -15.8561 -15.8561 -15.8561
   -15.8561 -15.8561 -15.8561 -15.8512 -15.8512 -15.8512 -15.8512 -15.8512
   -15.8512 -15.8512 -15.8512 -15.8512 -15.8512 -15.8512 -15.8512 -15.8512
   -15.8512 -15.8512 -15.8512 -15.8512 -15.8512 -15.8512 -15.8512 -15.8512
   -15.8512 -15.8512 -15.8512 -15.8486 -15.8486 -15.8486 -15.8465 -15.8465
   -15.8465 -15.8465 -15.8465 -15.8465 -15.8465 -15.8465 -15.8465 -15.8465
   -15.8465 -15.8465 -15.8460 -15.8460 -15.8460 -15.8460 -15.8460 -15.8460
   -15.8460 -15.8460 -15.8460 -15.8460 -15.8460 -15.8460 -15.8460 -15.8460
   -15.8460 -15.8460 -15.8460 -15.8460 -15.8460 -15.8460 -15.8460 -15.8460
   -15.8460 -15.8460 -15.8378 -15.8378 -15.8378 -15.8378 -15.8378 -15.8378
   -15.8378 -15.8378 -15.8283 -15.8283 -15.8283 -15.8283 -15.8283 -15.8283
   -15.8253 -15.8253 -15.8237 -15.8237 -15.8237 -15.8237 -15.8237 -15.8237
   -15.8237 -15.8237 -15.8237 -15.8237 -15.8237 -15.8237 -15.8164 -15.8164
   -15.8164 -15.8164 -15.8164 -15.8164 -15.8122 -15.8122 -15.8122 -15.8122
   -15.8122 -15.8122 -15.8122 -15.8122 -15.8122 -15.8122 -15.8122 -15.8122
   -15.8055 -15.8055 -15.8055 -15.8055 -15.8055 -15.8055 -15.7930 -15.7930
   -15.7930 -15.7930 -15.7930 -15.7930 -15.7930 -15.7930 -15.7930 -15.7930
   -15.7930 -15.7930 -15.7921 -15.7921 -15.7921 -15.7921 -15.7921 -15.7921
   -15.7921 -15.7921 -15.7921 -15.7921 -15.7921 -15.7921 -15.7921 -15.7921
   -15.7921 -15.7921 -15.7876 -15.7876 -15.7876 -15.7876 -15.7876 -15.7876
   -15.7876 -15.7876 -15.7876 -15.7876 -15.7876 -15.7876 -15.7810 -15.7810
   -15.7810 -15.7810 -15.7810 -15.7810 -15.7810 -15.7810 -15.7810 -15.7810
   -15.7810 -15.7810 -15.7768 -15.7768 -15.7768 -15.7768 -15.7768 -15.7768
   -15.7768 -15.7768 -15.7768 -15.7768 -15.7768 -15.7768 -15.7768 -15.7768
   -15.7768 -15.7768 -15.7768 -15.7768 -15.7768 -15.7768 -15.7768 -15.7768
   -15.7768 -15.7768 -15.7754 -15.7754 -15.7754 -15.7754 -15.7754 -15.7754
   -15.7754 -15.7754 -15.7754 -15.7754 -15.7754 -15.7754 -15.7731 -15.7731
   -15.7731 -15.7731 -15.7731 -15.7731 -15.7731 -15.7731 -15.7731 -15.7731
   -15.7731 -15.7731 -15.7731 -15.7731 -15.7731 -15.7731 -15.7731 -15.7731
   -15.7731 -15.7731 -15.7731 -15.7731 -15.7731 -15.7731 -15.7721 -15.7721
   -15.7721 -15.7721 -15.7721 -15.7721 -15.7721 -15.7721 -15.7721 -15.7721
   -15.7721 -15.7721 -15.7721 -15.7721 -15.7721 -15.7721 -15.7721 -15.7721
   -15.7721 -15.7721 -15.7721 -15.7721 -15.7721 -15.7721 -15.7684 -15.7684
   -15.7684 -15.7684 -15.7684 -15.7684 -15.7684 -15.7684 -15.7684 -15.7684
   -15.7684 -15.7684 -15.7684 -15.7684 -15.7684 -15.7684 -15.7684 -15.7684
   -15.7684 -15.7684 -15.7684 -15.7684 -15.7684 -15.7684 -15.7673 -15.7673
   -15.7673 -15.7673 -15.7673 -15.7673 -15.7673 -15.7673 -15.7673 -15.7673
   -15.7673 -15.7673 -15.7671 -15.7671 -15.7671 -15.7671 -15.7671 -15.7671
   -15.7671 -15.7671 -15.7671 -15.7670 -15.7670 -15.7670 -15.7670 -15.7670
   -15.7670 -15.7670 -15.7670 -15.7670 -15.7670 -15.7670 -15.7670 -15.7670
   -15.7670 -15.7670 -15.7629 -15.7629 -15.7629 -15.7629 -15.7629 -15.7629
    -3.5562  -3.1273  -3.1273  -3.1273  -3.1273  -3.1273  -3.1273  -2.7201
    -2.7201  -2.7201  -2.7201  -2.7201  -2.7201  -2.7201  -2.7201  -2.7201
    -2.7201  -2.7201  -2.7200  -2.3574  -2.3574  -2.3574  -2.3574  -2.3574
    -2.3574  -2.3574  -2.3574  -1.8679  -1.8679  -1.8679  -1.8679  -1.8679
    -1.8679  -1.5507  -1.5507  -1.5507  -1.5507  -1.5507  -1.5507  -1.5507
    -1.5507  -1.5507  -1.5507  -1.5507  -1.5507  -1.5507  -1.5507  -1.5507
    -1.5507  -1.5507  -1.5507  -1.5507  -1.5507  -1.5507  -1.5507  -1.5507
    -1.5507  -1.4245  -1.4245  -1.4245  -1.4245  -1.4245  -1.4245  -1.4245
    -1.4245  -1.4245  -1.4245  -1.4245  -1.4245  -1.4245  -1.4245  -1.4245
    -1.4245  -1.4245  -1.4245  -1.4245  -1.4245  -1.4245  -1.4245  -1.4245
    -1.4245  -0.7443  -0.7443  -0.7443  -0.7443  -0.7443  -0.7443  -0.7443
    -0.7443  -0.7443  -0.7443  -0.7443  -0.7443   0.1265   0.1265   0.1265
     0.1265   0.1265   0.1265   0.1875   0.1875   0.1875   0.1875   0.1875
     0.1875   0.1875   0.1875   0.1875   0.1875   0.1875   0.1875   0.1875
     0.1875   0.1875   0.1875   0.1875   0.1875   0.1875   0.1875   0.1875
     0.1875   0.1875   0.1875   1.1337   1.1337   1.1337   1.1337   1.1337
     1.1337   1.1337   1.1337   1.1337   1.1337   1.1337   1.1337   1.6031
     1.6031   1.6031   1.6031   1.6031   1.6031   1.6031   1.6031   1.6031
     1.6031   1.6031   1.6031   1.6031   1.6031   1.6031   1.6031   1.6032
     1.6032   1.6032   1.6032   1.6032   1.6032   1.6032   1.6032   2.1466
     2.1466   2.1466   2.1466   2.1466   2.1466   2.1466   2.1466   2.1466
     2.1466   2.1466   2.1466   2.1466   2.1466   2.1466   2.1466   2.1466
     2.1466   2.1466   2.1466   2.1466   2.1466   2.1466   2.1466   2.6722
     2.6722   2.6722   2.6722   2.6722   2.6722   2.8679   2.8679   2.8679
     2.8679   2.8679   2.8679   2.8679   2.8679   4.1185   4.1185   4.1185
     4.1185   4.1185   4.1185   4.1185   4.1185   4.1186   4.1186   4.1186
     4.1186   4.6485   4.6485   4.6485   4.6485   4.6485   4.6485   4.6485
     4.6485   4.6485   4.6485   4.6485   4.6485   5.3260   5.3260   5.3260
     5.3260   5.3260   5.3260   5.3261   5.3261   5.3261   5.3261   5.3261
     5.3261   5.3261   5.3261   5.3261   5.3261   5.3261   5.3261   5.3261
     5.3261   5.3261   5.3261   5.3261   5.3261   5.3559   5.3559   5.3559
     5.3559   5.3559   5.3559   5.3559   5.3559   5.3559   5.3559   5.3559
     5.3559   5.3559   5.3559   5.3559   5.3559   5.3559   5.3559   5.3559
     5.3559   5.3559   5.3559   5.3559   5.3559   5.5413   5.5413   5.5413
     5.5413   5.5413   5.5413   5.8571   5.8571   5.8571   5.8571   5.8571
     5.8571   5.8571   5.8571   5.8571   5.8571   5.8571   5.8571   5.8571
     5.8571   5.8571   5.8571   5.8571   5.8571   5.8571   5.8571   5.8571
     5.8571   5.8571   5.8571   5.9301   5.9301   5.9301   5.9301   5.9301
     5.9301   6.3754   6.3754   6.3754   6.3754   6.3754   6.3754   6.3754
     6.3754   6.3754   6.3754   6.3754   6.3754   6.4393   6.4393   6.4393
     6.4394   6.4394   6.4394   6.4394   6.4394   6.4394   6.4394   6.4394
     6.4394   6.5315   6.5315   6.5315   6.5315   6.5315   6.5315   6.5315
     6.5315   6.5315   6.5315   6.5315   6.5315   6.5315   6.5315   6.5315
     6.5315   6.5315   6.5315   6.5315   6.5315   6.5315   6.5315   6.5315
     6.5315   6.6487   6.6487   6.6487   6.6487   6.6487   6.6487   6.6487
     6.6487   6.6487   6.6487   6.6487   6.6487   6.9722   6.9722   6.9722
     6.9722   6.9722   6.9722   6.9722   6.9722   6.9722   6.9722   6.9722
     6.9722   6.9722   6.9722   6.9722   6.9722   6.9722   6.9722   6.9722
     6.9722   6.9722   6.9722   6.9722   6.9722   7.6202   7.6202   7.6202
     7.6202   7.6202   7.6202   7.6202   7.6202   7.6202   7.6202   7.6202
     7.6202   7.7243   7.7243   7.7243   7.7243   7.7243   7.7243   7.7243
     7.7243   7.7243   7.7243   7.7243   7.7243   7.7243   7.7243   7.7243
     7.7243   8.1669   8.1669   8.1669   8.1669   8.1669   8.1669   8.1669
     8.1669   8.1669   8.1669   8.1669   8.1669   8.3637   8.8221   8.8221
     8.8221   9.0635   9.0635   9.0635   9.0635   9.0635   9.0635   9.0635
     9.0635   9.5475   9.5475   9.5475   9.5475   9.5475   9.5475   9.6401
     9.6401   9.6401   9.6401   9.6401   9.6401  10.2566  10.2566  10.2566
    10.2566  10.2566  10.2566  10.2566  10.2566  10.2566  10.2566  10.2566
    10.2566  10.3408  10.3408  10.3408  10.3408  10.3408  10.3408  10.3408
    10.3408  10.3408  10.3408  10.3408  10.3408  10.3408  10.3408  10.3408
    10.3408  10.3408  10.3408  10.3408  10.3408  10.3408  10.3408  10.3408
    10.3408  10.4238  10.4238  10.4238  10.4238  10.4238  10.4238  10.5407
    10.5407  10.5407  10.5407  10.5407  10.5407  10.5407  10.5407  10.5407
    10.5407  10.5407  10.5407  10.7766  10.7766  10.7766  10.7766  10.7766
    10.7766  11.2547  11.2547  11.2547  11.2547  11.2547  11.2547  11.3476
    11.3476  11.3476  11.4763  11.4763  11.4763  11.4763  11.4763  11.4763
    11.4764  11.4764  11.4764  11.4764  11.4764  11.4764  11.4764  11.4764
    11.4764  11.4764  11.4764  11.4764  11.4764  11.4764  11.4764  11.4764
    11.4764  11.4764  11.5699  11.5699  11.5699  11.5699  11.5699  11.5699
    11.5699  11.5699  11.5699  11.5699  11.5699  11.5699  11.5699  11.5699
    11.5699  11.5699  11.5699  11.5699  11.5699  11.5699  11.5699  11.5699
    11.5699  11.5699  11.8056  11.8056  11.8056  11.8056  11.8056  11.8056
    11.8056  11.8056  11.8056  11.8056  11.8056  11.8056  11.8056  11.8056
    11.8056  11.8056  11.8056  11.8056  11.8056  11.8056  11.8056  11.8056
    11.8056  11.8056  12.3153  12.3153  12.3153  12.3153  12.3153  12.3153
    12.3153  12.3153  12.3153  12.3153  12.3153  12.3153  12.4833  12.4833
    12.4833  12.4833  12.4833  12.4833  12.4833  12.4833  12.4833  12.4833
    12.4833  12.4833  12.5077  12.5077  12.5077  12.5077  12.5077  12.5077
    12.5077  12.5077  12.5077  12.5077  12.5077  12.5077  12.5077  12.5077
    12.5077  12.5077  12.5077  12.5077  12.5077  12.5077  12.5077  12.5077
    12.5077  12.5077  12.5438  12.5438  12.5438  12.5438  12.5438  12.5438
    12.5438  12.5438  12.5438  12.5438  12.5438  12.5438  12.5438  12.5438
    12.5438  12.5438  13.0937  13.0937  13.0937  13.0937  13.0937  13.0937
    13.0937  13.0937  13.0937  13.0937  13.0937  13.0937  13.1723  13.1723
    13.1723  13.1723  13.1723  13.1723  13.1723  13.1723  13.1723  13.1723
    13.1723  13.1723  13.1723  13.1723  13.1723  13.1723  13.1723  13.1723
    13.1723  13.1723  13.1724  13.1724  13.1724  13.1724  13.6970  13.6970
    13.6970  13.6970  13.6970  13.6970  13.6970  13.6970  13.6970  13.6970
    13.6970  13.6970  13.6970  13.6970  13.6970  13.6970  13.6970  13.6970
    13.6970  13.6970  13.6970  13.6970  13.6970  13.6970  13.8069  13.8069
    13.8069  13.8069  13.8069  13.8069  13.8069  13.8069  13.8069  13.8069
    13.8069  13.8069  14.3452  14.3452  14.3452  14.3452

     the Fermi energy is     8.8535 ev

!    total energy              =  -38579.22445219 Ry
     estimated scf accuracy    <          8.4E-09 Ry
     smearing contrib. (-TS)   =      -0.02021693 Ry
     internal energy E=F+TS    =  -38579.20423526 Ry

     The total energy is F=E-TS. E is the sum of the following terms:
     one-electron contribution =  -20383.38138522 Ry
     hartree contribution      =   12175.48352040 Ry
     xc contribution           =   -9419.61138766 Ry
     ewald contribution        =  -20951.69498277 Ry

     convergence has been achieved in  15 iterations

     Forces acting on atoms (cartesian axes, Ry/au):

     atom    1 type  1   force =     0.00000000    0.00000000    0.00000000
     atom    2 type  1   force =    -0.00000093    0.00000000    0.00000000
     atom    3 type  1   force =     0.00000093    0.00000000    0.00000000
     atom    4 type  1   force =    -0.00000000   -0.00000093    0.00000000
     atom    5 type  1   force =    -0.00000044   -0.00000044   -0.00000011
     atom    6 type  1   force =     0.00000044   -0.00000044    0.00000011
     atom    7 type  1   force =    -0.00000000    0.00000093    0.00000000
     atom    8 type  1   force =    -0.00000044    0.00000044    0.00000011
     atom    9 type  1   force =     0.00000044    0.00000044   -0.00000011
     atom   10 type  1   force =     0.00000000    0.00000000   -0.00000093
     atom   11 type  1   force =    -0.00000044   -0.00000011   -0.00000044
     atom   12 type  1   force =     0.00000044    0.00000011   -0.00000044
     atom   13 type  1   force =    -0.00000011   -0.00000044   -0.00000044
     atom   14 type  1   force =    -0.00000105   -0.00000105   -0.00000105
     atom   15 type  1   force =     0.00000077   -0.00000077   -0.00000077
     atom   16 type  1   force =     0.00000011    0.00000044   -0.00000044
     atom   17 type  1   force =    -0.00000077    0.00000077   -0.00000077
     atom   18 type  1   force =     0.00000105    0.00000105   -0.00000105
     atom   19 type  1   force =     0.00000000    0.00000000    0.00000093
     atom   20 type  1   force =    -0.00000044    0.00000011    0.00000044
     atom   21 type  1   force =     0.00000044   -0.00000011    0.00000044
     atom   22 type  1   force =     0.00000011   -0.00000044    0.00000044
     atom   23 type  1   force =    -0.00000077   -0.00000077    0.00000077
     atom   24 type  1   force =     0.00000105   -0.00000105    0.00000105
     atom   25 type  1   force =    -0.00000011    0.00000044    0.00000044
     atom   26 type  1   force =    -0.00000105    0.00000105    0.00000105
     atom   27 type  1   force =     0.00000077    0.00000077    0.00000077
     atom   28 type  1   force =     0.00000061    0.00000061    0.00000061
     atom   29 type  1   force =    -0.00000063    0.00000077    0.00000077
     atom   30 type  1   force =    -0.00000004    0.00000005    0.00000005
     atom   31 type  1   force =     0.00000077   -0.00000063    0.00000077
     atom   32 type  1   force =    -0.00000077   -0.00000077    0.00000003
     atom   33 type  1   force =     0.00000006   -0.00000032   -0.00000000
     atom   34 type  1   force =     0.00000005   -0.00000004    0.00000005
     atom   35 type  1   force =    -0.00000032    0.00000006   -0.00000000
     atom   36 type  1   force =     0.00000012    0.00000012    0.00000069
     atom   37 type  1   force =     0.00000077    0.00000077   -0.00000063
     atom   38 type  1   force =    -0.00000077    0.00000003   -0.00000077
     atom   39 type  1   force =     0.00000006   -0.00000000   -0.00000032
     atom   40 type  1   force =     0.00000003   -0.00000077   -0.00000077
     atom   41 type  1   force =    -0.00000086   -0.00000086   -0.00000086
     atom   42 type  1   force =     0.00000104   -0.00000055   -0.00000055
     atom   43 type  1   force =    -0.00000000    0.00000006   -0.00000032
     atom   44 type  1   force =    -0.00000055    0.00000104   -0.00000055
     atom   45 type  1   force =     0.00000058    0.00000058   -0.00000069
     atom   46 type  1   force =     0.00000005    0.00000005   -0.00000004
     atom   47 type  1   force =    -0.00000032   -0.00000000    0.00000006
     atom   48 type  1   force =     0.00000012    0.00000069    0.00000012
     atom   49 type  1   force =    -0.00000000   -0.00000032    0.00000006
     atom   50 type  1   force =    -0.00000055   -0.00000055    0.00000104
     atom   51 type  1   force =     0.00000058   -0.00000069    0.00000058
     atom   52 type  1   force =     0.00000069    0.00000012    0.00000012
     atom   53 type  1   force =    -0.00000069    0.00000058    0.00000058
     atom   54 type  1   force =     0.00000008    0.00000008    0.00000008
     atom   55 type  1   force =     0.00000045    0.00000045    0.00000041
     atom   56 type  1   force =     0.00000000    0.00000109    0.00000000
     atom   57 type  1   force =    -0.00000045    0.00000045   -0.00000041
     atom   58 type  1   force =     0.00000109    0.00000000   -0.00000000
     atom   59 type  1   force =     0.00000000    0.00000000    0.00000000
     atom   60 type  1   force =    -0.00000109    0.00000000   -0.00000000
     atom   61 type  1   force =     0.00000045   -0.00000045   -0.00000041
     atom   62 type  1   force =     0.00000000   -0.00000109    0.00000000
     atom   63 type  1   force =    -0.00000045   -0.00000045    0.00000041
     atom   64 type  1   force =     0.00000040    0.00000040   -0.00000074
     atom   65 type  1   force =     0.00000000   -0.00000040   -0.00000102
     atom   66 type  1   force =    -0.00000025    0.00000025   -0.00000017
     atom   67 type  1   force =    -0.00000040    0.00000000   -0.00000102
     atom   68 type  1   force =     0.00000000    0.00000000   -0.00000129
     atom   69 type  1   force =     0.00000040   -0.00000000   -0.00000102
     atom   70 type  1   force =     0.00000025   -0.00000025   -0.00000017
     atom   71 type  1   force =    -0.00000000    0.00000040   -0.00000102
     atom   72 type  1   force =    -0.00000040   -0.00000040   -0.00000074
     atom   73 type  1   force =     0.00000025    0.00000025    0.00000017
     atom   74 type  1   force =    -0.00000000   -0.00000040    0.00000102
     atom   75 type  1   force =    -0.00000040    0.00000040    0.00000074
     atom   76 type  1   force =    -0.00000040   -0.00000000    0.00000102
     atom   77 type  1   force =     0.00000000    0.00000000    0.00000129
     atom   78 type  1   force =     0.00000040    0.00000000    0.00000102
     atom   79 type  1   force =     0.00000040   -0.00000040    0.00000074
     atom   80 type  1   force =     0.00000000    0.00000040    0.00000102
     atom   81 type  1   force =    -0.00000025   -0.00000025    0.00000017
     atom   82 type  1   force =    -0.00000012   -0.00000012    0.00000069
     atom   83 type  1   force =     0.00000032   -0.00000006   -0.00000000
     atom   84 type  1   force =    -0.00000005    0.00000004    0.00000005
     atom   85 type  1   force =    -0.00000006    0.00000032   -0.00000000
     atom   86 type  1   force =     0.00000077    0.00000077    0.00000003
     atom   87 type  1   force =    -0.00000077    0.00000063    0.00000077
     atom   88 type  1   force =     0.00000004   -0.00000005    0.00000005
     atom   89 type  1   force =     0.00000063   -0.00000077    0.00000077
     atom   90 type  1   force =    -0.00000061   -0.00000061    0.00000061
     atom   91 type  1   force =    -0.00000058   -0.00000058   -0.00000069
     atom   92 type  1   force =     0.00000055   -0.00000104   -0.00000055
     atom   93 type  1   force =     0.00000000   -0.00000006   -0.00000032
     atom   94 type  1   force =    -0.00000104    0.00000055   -0.00000055
     atom   95 type  1   force =     0.00000086    0.00000086   -0.00000086
     atom   96 type  1   force =    -0.00000003    0.00000077   -0.00000077
     atom   97 type  1   force =    -0.00000006    0.00000000   -0.00000032
     atom   98 type  1   force =     0.00000077   -0.00000003   -0.00000077
     atom   99 type  1   force =    -0.00000077   -0.00000077   -0.00000063
     atom  100 type  1   force =    -0.00000008   -0.00000008    0.00000008
     atom  101 type  1   force =     0.00000069   -0.00000058    0.00000058
     atom  102 type  1   force =    -0.00000069   -0.00000012    0.00000012
     atom  103 type  1   force =    -0.00000058    0.00000069    0.00000058
     atom  104 type  1   force =     0.00000055    0.00000055    0.00000104
     atom  105 type  1   force =     0.00000000    0.00000032    0.00000006
     atom  106 type  1   force =    -0.00000012   -0.00000069    0.00000012
     atom  107 type  1   force =     0.00000032    0.00000000    0.00000006
     atom  108 type  1   force =    -0.00000005   -0.00000005   -0.00000004
     atom  109 type  1   force =     0.00000045    0.00000041    0.00000045
     atom  110 type  1   force =     0.00000000    0.00000000    0.00000109
     atom  111 type  1   force =    -0.00000045   -0.00000041    0.00000045
     atom  112 type  1   force =     0.00000040   -0.00000074    0.00000040
     atom  113 type  1   force =     0.00000000   -0.00000102   -0.00000040
     atom  114 type  1   force =    -0.00000025   -0.00000017    0.00000025
     atom  115 type  1   force =     0.00000025    0.00000017    0.00000025
     atom  116 type  1   force =    -0.00000000    0.00000102   -0.00000040
     atom  117 type  1   force =    -0.00000040    0.00000074    0.00000040
     atom  118 type  1   force =     0.00000109    0.00000000    0.00000000
     atom  119 type  1   force =     0.00000000    0.00000000    0.00000000
     atom  120 type  1   force =    -0.00000109   -0.00000000    0.00000000
     atom  121 type  1   force =    -0.00000040   -0.00000102    0.00000000
     atom  122 type  1   force =     0.00000000   -0.00000129    0.00000000
     atom  123 type  1   force =     0.00000040   -0.00000102   -0.00000000
     atom  124 type  1   force =    -0.00000040    0.00000102   -0.00000000
     atom  125 type  1   force =     0.00000000    0.00000129   -0.00000000
     atom  126 type  1   force =     0.00000040    0.00000102    0.00000000
     atom  127 type  1   force =     0.00000045   -0.00000041   -0.00000045
     atom  128 type  1   force =     0.00000000    0.00000000   -0.00000109
     atom  129 type  1   force =    -0.00000045    0.00000041   -0.00000045
     atom  130 type  1   force =     0.00000025   -0.00000017   -0.00000025
     atom  131 type  1   force =    -0.00000000   -0.00000102    0.00000040
     atom  132 type  1   force =    -0.00000040   -0.00000074   -0.00000040
     atom  133 type  1   force =     0.00000040    0.00000074   -0.00000040
     atom  134 type  1   force =     0.00000000    0.00000102    0.00000040
     atom  135 type  1   force =    -0.00000025    0.00000017   -0.00000025
     atom  136 type  1   force =    -0.00000012    0.00000069   -0.00000012
     atom  137 type  1   force =     0.00000032   -0.00000000   -0.00000006
     atom  138 type  1   force =    -0.00000005    0.00000005    0.00000004
     atom  139 type  1   force =    -0.00000058   -0.00000069   -0.00000058
     atom  140 type  1   force =     0.00000055   -0.00000055   -0.00000104
     atom  141 type  1   force =     0.00000000   -0.00000032   -0.00000006
     atom  142 type  1   force =    -0.00000008    0.00000008   -0.00000008
     atom  143 type  1   force =     0.00000069    0.00000058   -0.00000058
     atom  144 type  1   force =    -0.00000069    0.00000012   -0.00000012
     atom  145 type  1   force =    -0.00000006   -0.00000000    0.00000032
     atom  146 type  1   force =     0.00000077    0.00000003    0.00000077
     atom  147 type  1   force =    -0.00000077    0.00000077    0.00000063
     atom  148 type  1   force =    -0.00000104   -0.00000055    0.00000055
     atom  149 type  1   force =     0.00000086   -0.00000086    0.00000086
     atom  150 type  1   force =    -0.00000003   -0.00000077    0.00000077
     atom  151 type  1   force =    -0.00000058    0.00000058    0.00000069
     atom  152 type  1   force =     0.00000055    0.00000104    0.00000055
     atom  153 type  1   force =     0.00000000    0.00000006    0.00000032
     atom  154 type  1   force =     0.00000004    0.00000005   -0.00000005
     atom  155 type  1   force =     0.00000063    0.00000077   -0.00000077
     atom  156 type  1   force =    -0.00000061    0.00000061   -0.00000061
     atom  157 type  1   force =    -0.00000006   -0.00000032    0.00000000
     atom  158 type  1   force =     0.00000077   -0.00000077   -0.00000003
     atom  159 type  1   force =    -0.00000077   -0.00000063   -0.00000077
     atom  160 type  1   force =    -0.00000012    0.00000012   -0.00000069
     atom  161 type  1   force =     0.00000032    0.00000006    0.00000000
     atom  162 type  1   force =    -0.00000005   -0.00000004   -0.00000005
     atom  163 type  1   force =     0.00000041    0.00000045    0.00000045
     atom  164 type  1   force =    -0.00000074    0.00000040    0.00000040
     atom  165 type  1   force =     0.00000017    0.00000025    0.00000025
     atom  166 type  1   force =    -0.00000000    0.00000000    0.00000109
     atom  167 type  1   force =    -0.00000102    0.00000000   -0.00000040
     atom  168 type  1   force =     0.00000102   -0.00000000   -0.00000040
     atom  169 type  1   force =    -0.00000041   -0.00000045    0.00000045
     atom  170 type  1   force =    -0.00000017   -0.00000025    0.00000025
     atom  171 type  1   force =     0.00000074   -0.00000040    0.00000040
     atom  172 type  1   force =     0.00000000    0.00000109    0.00000000
     atom  173 type  1   force =    -0.00000102   -0.00000040    0.00000000
     atom  174 type  1   force =     0.00000102   -0.00000040   -0.00000000
     atom  175 type  1   force =     0.00000000    0.00000000    0.00000000
     atom  176 type  1   force =    -0.00000129   -0.00000000    0.00000000
     atom  177 type  1   force =     0.00000129    0.00000000    0.00000000
     atom  178 type  1   force =     0.00000000   -0.00000109    0.00000000
     atom  179 type  1   force =    -0.00000102    0.00000040   -0.00000000
     atom  180 type  1   force =     0.00000102    0.00000040    0.00000000
     atom  181 type  1   force =    -0.00000041    0.00000045   -0.00000045
     atom  182 type  1   force =    -0.00000017    0.00000025   -0.00000025
     atom  183 type  1   force =     0.00000074    0.00000040   -0.00000040
     atom  184 type  1   force =     0.00000000   -0.00000000   -0.00000109
     atom  185 type  1   force =    -0.00000102   -0.00000000    0.00000040
     atom  186 type  1   force =     0.00000102    0.00000000    0.00000040
     atom  187 type  1   force =     0.00000041   -0.00000045   -0.00000045
     atom  188 type  1   force =    -0.00000074   -0.00000040   -0.00000040
     atom  189 type  1   force =     0.00000017   -0.00000025   -0.00000025
     atom  190 type  1   force =     0.00000069   -0.00000012   -0.00000012
     atom  191 type  1   force =    -0.00000069   -0.00000058   -0.00000058
     atom  192 type  1   force =     0.00000008   -0.00000008   -0.00000008
     atom  193 type  1   force =    -0.00000000    0.00000032   -0.00000006
     atom  194 type  1   force =    -0.00000055    0.00000055   -0.00000104
     atom  195 type  1   force =     0.00000058    0.00000069   -0.00000058
     atom  196 type  1   force =     0.00000005   -0.00000005    0.00000004
     atom  197 type  1   force =    -0.00000032    0.00000000   -0.00000006
     atom  198 type  1   force =     0.00000012   -0.00000069   -0.00000012
     atom  199 type  1   force =    -0.00000000   -0.00000006    0.00000032
     atom  200 type  1   force =    -0.00000055   -0.00000104    0.00000055
     atom  201 type  1   force =     0.00000058   -0.00000058    0.00000069
     atom  202 type  1   force =     0.00000003    0.00000077    0.00000077
     atom  203 type  1   force =    -0.00000086    0.00000086    0.00000086
     atom  204 type  1   force =     0.00000104    0.00000055    0.00000055
     atom  205 type  1   force =     0.00000077   -0.00000077    0.00000063
     atom  206 type  1   force =    -0.00000077   -0.00000003    0.00000077
     atom  207 type  1   force =     0.00000006    0.00000000    0.00000032
     atom  208 type  1   force =     0.00000005    0.00000004   -0.00000005
     atom  209 type  1   force =    -0.00000032   -0.00000006    0.00000000
     atom  210 type  1   force =     0.00000012   -0.00000012   -0.00000069
     atom  211 type  1   force =     0.00000077    0.00000063   -0.00000077
     atom  212 type  1   force =    -0.00000077    0.00000077   -0.00000003
     atom  213 type  1   force =     0.00000006    0.00000032    0.00000000
     atom  214 type  1   force =     0.00000061   -0.00000061   -0.00000061
     atom  215 type  1   force =    -0.00000063   -0.00000077   -0.00000077
     atom  216 type  1   force =    -0.00000004   -0.00000005   -0.00000005

     Total force =     0.000014     Total SCF correction =     0.000721
     SCF correction compared to forces is large: reduce conv_thr to get better values


     Computing stress (Cartesian axis) and pressure

          total   stress  (Ry/bohr**3)                   (kbar)     P=     -349.66
  -0.00237695   0.00000000   0.00000000         -349.66        0.00        0.00
   0.00000000  -0.00237695   0.00000000            0.00     -349.66        0.00
   0.00000000   0.00000000  -0.00237695            0.00        0.00     -349.66


     Writing output data file ./Ge_out/Ge_scf.save/
 
     init_run     :      9.31s CPU     12.28s WALL (       1 calls)
     electrons    :    477.05s CPU    617.75s WALL (       1 calls)
     forces       :      8.00s CPU     11.83s WALL (       1 calls)
     stress       :    197.07s CPU    327.30s WALL (       1 calls)

     Called by init_run:
     wfcinit      :      8.78s CPU     11.70s WALL (       1 calls)
     potinit      :      0.08s CPU      0.10s WALL (       1 calls)
     hinit0       :      0.09s CPU      0.10s WALL (       1 calls)

     Called by electrons:
     c_bands      :    454.07s CPU    594.13s WALL (      16 calls)
     sum_band     :     21.86s CPU     22.19s WALL (      16 calls)
     v_of_rho     :      0.90s CPU      1.14s WALL (      16 calls)
     mix_rho      :      0.21s CPU      0.22s WALL (      16 calls)

     Called by c_bands:
     init_us_2    :      3.02s CPU      3.15s WALL (      33 calls)
     regterg      :    442.49s CPU    582.08s WALL (      16 calls)

     Called by *egterg:
     rdiaghg      :     24.28s CPU     40.33s WALL (      66 calls)
     h_psi        :    195.42s CPU    201.12s WALL (      68 calls)
     g_psi        :      0.69s CPU      0.70s WALL (      51 calls)

     Called by h_psi:
     h_psi:calbec :     65.16s CPU     68.69s WALL (      68 calls)
     vloc_psi     :     79.36s CPU     80.64s WALL (      68 calls)
     add_vuspsi   :     49.07s CPU     49.94s WALL (      68 calls)

     General routines
     calbec       :     73.68s CPU     80.88s WALL (      73 calls)
     fft          :      0.57s CPU      0.71s WALL (     148 calls)
     ffts         :      0.05s CPU      0.05s WALL (      16 calls)
     fftw         :     85.19s CPU     86.60s WALL (   81920 calls)
 
     Parallel routines
 
     PWSCF        :  11m33.48s CPU  16m16.37s WALL

 
   This run was terminated on:   1:19:37  15May2025            

=------------------------------------------------------------------------------=
   JOB DONE.
=------------------------------------------------------------------------------=
