
     Program PWSCF v.6.8 starts on 15May2025 at  0:47: 8 

     This program is part of the open-source Quantum ESPRESSO suite
     for quantum simulation of materials; please cite
         "P. Giannozzi et al., J. Phys.:Condens. Matter 21 395502 (2009);
         "P. Giannozzi et al., J. Phys.:Condens. Matter 29 465901 (2017);
         "P. Giannozzi et al., J. Chem. Phys. 152 154105 (2020);
          URL http://www.quantum-espresso.org", 
     in publications or presentations arising from this work. More details at
     http://www.quantum-espresso.org/quote

     Parallel version (MPI & OpenMP), running on      56 processor cores
     Number of MPI processes:                56
     Threads/MPI process:                     1

     MPI processes distributed on     1 nodes
     R & G space division:  proc/nbgrp/npool/nimage =      56
     186669 MiB available memory on the printing compute node when the environment starts
 
     Reading input from supercell-001.in
Warning: card &CELL ignored
Warning: card / ignored

     Current dimensions of program PWSCF are:
     Max number of different atomic species (ntypx) = 10
     Max number of k-points (npk) =  40000
     Max angular momentum in pseudopotentials (lmaxx) =  4

     gamma-point specific algorithms are used
     Message from routine setup:
     using ibrav=0 with symmetry is DISCOURAGED, use correct ibrav instead

     Subspace diagonalization in iterative solution of the eigenvalue problem:
     one sub-group per band group will be used
     scalapack distributed-memory algorithm (size of sub-group:  7*  7 procs)

 
     Parallelization info
     --------------------
     sticks:   dense  smooth     PW     G-vecs:    dense   smooth      PW
     Min         362     362     90                39034    39034    4874
     Max         364     364     92                39051    39051    4888
     Sum       20361   20361   5089              2186337  2186337  273209
 
     Using Slab Decomposition
 


     bravais-lattice index     =            0
     lattice parameter (alat)  =      32.6545  a.u.
     unit-cell volume          =   34819.9244 (a.u.)^3
     number of atoms/cell      =          216
     number of atomic types    =            1
     number of electrons       =      3024.00
     number of Kohn-Sham states=         1814
     kinetic-energy cutoff     =      60.0000  Ry
     charge density cutoff     =     240.0000  Ry
     scf convergence threshold =      1.0E-08
     mixing beta               =       0.5000
     number of iterations used =            8  plain     mixing
     Exchange-correlation= PBE
                           (   1   4   3   4   0   0   0)

     celldm(1)=  32.654468  celldm(2)=   0.000000  celldm(3)=   0.000000
     celldm(4)=   0.000000  celldm(5)=   0.000000  celldm(6)=   0.000000

     crystal axes: (cart. coord. in units of alat)
               a(1) = (   1.000000   0.000000   0.000000 )  
               a(2) = (   0.000000   1.000000   0.000000 )  
               a(3) = (   0.000000   0.000000   1.000000 )  

     reciprocal axes: (cart. coord. in units 2 pi/alat)
               b(1) = (  1.000000  0.000000  0.000000 )  
               b(2) = (  0.000000  1.000000  0.000000 )  
               b(3) = (  0.000000  0.000000  1.000000 )  


     PseudoPot. # 1 for Ge read from file:
     ./Ge.upf
     MD5 check sum: 087fa14d6c89b52166990835c3b338da
     Pseudo is Norm-conserving + core correction, Zval = 14.0
     Generated using ONCVPSP code by D. R. Hamann
     Using radial grid of 1560 points,  6 beta functions with: 
                l(1) =   0
                l(2) =   0
                l(3) =   1
                l(4) =   1
                l(5) =   2
                l(6) =   2

     atomic species   valence    mass     pseudopotential
        Ge            14.00    72.64000     Ge( 1.00)

      4 Sym. Ops. (no inversion) found



   Cartesian axes

     site n.     atom                  positions (alat units)
         1           Ge  tau(   1) = (   0.0006125   0.0000000   0.0000000  )
         2           Ge  tau(   2) = (   0.3333333   0.0000000   0.0000000  )
         3           Ge  tau(   3) = (   0.6666667   0.0000000   0.0000000  )
         4           Ge  tau(   4) = (   0.0000000   0.3333333   0.0000000  )
         5           Ge  tau(   5) = (   0.3333333   0.3333333   0.0000000  )
         6           Ge  tau(   6) = (   0.6666667   0.3333333   0.0000000  )
         7           Ge  tau(   7) = (   0.0000000   0.6666667   0.0000000  )
         8           Ge  tau(   8) = (   0.3333333   0.6666667   0.0000000  )
         9           Ge  tau(   9) = (   0.6666667   0.6666667   0.0000000  )
        10           Ge  tau(  10) = (   0.0000000   0.0000000   0.3333333  )
        11           Ge  tau(  11) = (   0.3333333   0.0000000   0.3333333  )
        12           Ge  tau(  12) = (   0.6666667   0.0000000   0.3333333  )
        13           Ge  tau(  13) = (   0.0000000   0.3333333   0.3333333  )
        14           Ge  tau(  14) = (   0.3333333   0.3333333   0.3333333  )
        15           Ge  tau(  15) = (   0.6666667   0.3333333   0.3333333  )
        16           Ge  tau(  16) = (   0.0000000   0.6666667   0.3333333  )
        17           Ge  tau(  17) = (   0.3333333   0.6666667   0.3333333  )
        18           Ge  tau(  18) = (   0.6666667   0.6666667   0.3333333  )
        19           Ge  tau(  19) = (   0.0000000   0.0000000   0.6666667  )
        20           Ge  tau(  20) = (   0.3333333   0.0000000   0.6666667  )
        21           Ge  tau(  21) = (   0.6666667   0.0000000   0.6666667  )
        22           Ge  tau(  22) = (   0.0000000   0.3333333   0.6666667  )
        23           Ge  tau(  23) = (   0.3333333   0.3333333   0.6666667  )
        24           Ge  tau(  24) = (   0.6666667   0.3333333   0.6666667  )
        25           Ge  tau(  25) = (   0.0000000   0.6666667   0.6666667  )
        26           Ge  tau(  26) = (   0.3333333   0.6666667   0.6666667  )
        27           Ge  tau(  27) = (   0.6666667   0.6666667   0.6666667  )
        28           Ge  tau(  28) = (   0.0833333   0.0833333   0.0833333  )
        29           Ge  tau(  29) = (   0.4166667   0.0833333   0.0833333  )
        30           Ge  tau(  30) = (   0.7500000   0.0833333   0.0833333  )
        31           Ge  tau(  31) = (   0.0833333   0.4166667   0.0833333  )
        32           Ge  tau(  32) = (   0.4166667   0.4166667   0.0833333  )
        33           Ge  tau(  33) = (   0.7500000   0.4166667   0.0833333  )
        34           Ge  tau(  34) = (   0.0833333   0.7500000   0.0833333  )
        35           Ge  tau(  35) = (   0.4166667   0.7500000   0.0833333  )
        36           Ge  tau(  36) = (   0.7500000   0.7500000   0.0833333  )
        37           Ge  tau(  37) = (   0.0833333   0.0833333   0.4166667  )
        38           Ge  tau(  38) = (   0.4166667   0.0833333   0.4166667  )
        39           Ge  tau(  39) = (   0.7500000   0.0833333   0.4166667  )
        40           Ge  tau(  40) = (   0.0833333   0.4166667   0.4166667  )
        41           Ge  tau(  41) = (   0.4166667   0.4166667   0.4166667  )
        42           Ge  tau(  42) = (   0.7500000   0.4166667   0.4166667  )
        43           Ge  tau(  43) = (   0.0833333   0.7500000   0.4166667  )
        44           Ge  tau(  44) = (   0.4166667   0.7500000   0.4166667  )
        45           Ge  tau(  45) = (   0.7500000   0.7500000   0.4166667  )
        46           Ge  tau(  46) = (   0.0833333   0.0833333   0.7500000  )
        47           Ge  tau(  47) = (   0.4166667   0.0833333   0.7500000  )
        48           Ge  tau(  48) = (   0.7500000   0.0833333   0.7500000  )
        49           Ge  tau(  49) = (   0.0833333   0.4166667   0.7500000  )
        50           Ge  tau(  50) = (   0.4166667   0.4166667   0.7500000  )
        51           Ge  tau(  51) = (   0.7500000   0.4166667   0.7500000  )
        52           Ge  tau(  52) = (   0.0833333   0.7500000   0.7500000  )
        53           Ge  tau(  53) = (   0.4166667   0.7500000   0.7500000  )
        54           Ge  tau(  54) = (   0.7500000   0.7500000   0.7500000  )
        55           Ge  tau(  55) = (   0.1666667   0.1666667   0.0000000  )
        56           Ge  tau(  56) = (   0.5000000   0.1666667   0.0000000  )
        57           Ge  tau(  57) = (   0.8333333   0.1666667   0.0000000  )
        58           Ge  tau(  58) = (   0.1666667   0.5000000   0.0000000  )
        59           Ge  tau(  59) = (   0.5000000   0.5000000   0.0000000  )
        60           Ge  tau(  60) = (   0.8333333   0.5000000   0.0000000  )
        61           Ge  tau(  61) = (   0.1666667   0.8333333   0.0000000  )
        62           Ge  tau(  62) = (   0.5000000   0.8333333   0.0000000  )
        63           Ge  tau(  63) = (   0.8333333   0.8333333   0.0000000  )
        64           Ge  tau(  64) = (   0.1666667   0.1666667   0.3333333  )
        65           Ge  tau(  65) = (   0.5000000   0.1666667   0.3333333  )
        66           Ge  tau(  66) = (   0.8333333   0.1666667   0.3333333  )
        67           Ge  tau(  67) = (   0.1666667   0.5000000   0.3333333  )
        68           Ge  tau(  68) = (   0.5000000   0.5000000   0.3333333  )
        69           Ge  tau(  69) = (   0.8333333   0.5000000   0.3333333  )
        70           Ge  tau(  70) = (   0.1666667   0.8333333   0.3333333  )
        71           Ge  tau(  71) = (   0.5000000   0.8333333   0.3333333  )
        72           Ge  tau(  72) = (   0.8333333   0.8333333   0.3333333  )
        73           Ge  tau(  73) = (   0.1666667   0.1666667   0.6666667  )
        74           Ge  tau(  74) = (   0.5000000   0.1666667   0.6666667  )
        75           Ge  tau(  75) = (   0.8333333   0.1666667   0.6666667  )
        76           Ge  tau(  76) = (   0.1666667   0.5000000   0.6666667  )
        77           Ge  tau(  77) = (   0.5000000   0.5000000   0.6666667  )
        78           Ge  tau(  78) = (   0.8333333   0.5000000   0.6666667  )
        79           Ge  tau(  79) = (   0.1666667   0.8333333   0.6666667  )
        80           Ge  tau(  80) = (   0.5000000   0.8333333   0.6666667  )
        81           Ge  tau(  81) = (   0.8333333   0.8333333   0.6666667  )
        82           Ge  tau(  82) = (   0.2500000   0.2500000   0.0833333  )
        83           Ge  tau(  83) = (   0.5833333   0.2500000   0.0833333  )
        84           Ge  tau(  84) = (   0.9166667   0.2500000   0.0833333  )
        85           Ge  tau(  85) = (   0.2500000   0.5833333   0.0833333  )
        86           Ge  tau(  86) = (   0.5833333   0.5833333   0.0833333  )
        87           Ge  tau(  87) = (   0.9166667   0.5833333   0.0833333  )
        88           Ge  tau(  88) = (   0.2500000   0.9166667   0.0833333  )
        89           Ge  tau(  89) = (   0.5833333   0.9166667   0.0833333  )
        90           Ge  tau(  90) = (   0.9166667   0.9166667   0.0833333  )
        91           Ge  tau(  91) = (   0.2500000   0.2500000   0.4166667  )
        92           Ge  tau(  92) = (   0.5833333   0.2500000   0.4166667  )
        93           Ge  tau(  93) = (   0.9166667   0.2500000   0.4166667  )
        94           Ge  tau(  94) = (   0.2500000   0.5833333   0.4166667  )
        95           Ge  tau(  95) = (   0.5833333   0.5833333   0.4166667  )
        96           Ge  tau(  96) = (   0.9166667   0.5833333   0.4166667  )
        97           Ge  tau(  97) = (   0.2500000   0.9166667   0.4166667  )
        98           Ge  tau(  98) = (   0.5833333   0.9166667   0.4166667  )
        99           Ge  tau(  99) = (   0.9166667   0.9166667   0.4166667  )
       100           Ge  tau( 100) = (   0.2500000   0.2500000   0.7500000  )
       101           Ge  tau( 101) = (   0.5833333   0.2500000   0.7500000  )
       102           Ge  tau( 102) = (   0.9166667   0.2500000   0.7500000  )
       103           Ge  tau( 103) = (   0.2500000   0.5833333   0.7500000  )
       104           Ge  tau( 104) = (   0.5833333   0.5833333   0.7500000  )
       105           Ge  tau( 105) = (   0.9166667   0.5833333   0.7500000  )
       106           Ge  tau( 106) = (   0.2500000   0.9166667   0.7500000  )
       107           Ge  tau( 107) = (   0.5833333   0.9166667   0.7500000  )
       108           Ge  tau( 108) = (   0.9166667   0.9166667   0.7500000  )
       109           Ge  tau( 109) = (   0.1666667   0.0000000   0.1666667  )
       110           Ge  tau( 110) = (   0.5000000   0.0000000   0.1666667  )
       111           Ge  tau( 111) = (   0.8333333   0.0000000   0.1666667  )
       112           Ge  tau( 112) = (   0.1666667   0.3333333   0.1666667  )
       113           Ge  tau( 113) = (   0.5000000   0.3333333   0.1666667  )
       114           Ge  tau( 114) = (   0.8333333   0.3333333   0.1666667  )
       115           Ge  tau( 115) = (   0.1666667   0.6666667   0.1666667  )
       116           Ge  tau( 116) = (   0.5000000   0.6666667   0.1666667  )
       117           Ge  tau( 117) = (   0.8333333   0.6666667   0.1666667  )
       118           Ge  tau( 118) = (   0.1666667   0.0000000   0.5000000  )
       119           Ge  tau( 119) = (   0.5000000   0.0000000   0.5000000  )
       120           Ge  tau( 120) = (   0.8333333   0.0000000   0.5000000  )
       121           Ge  tau( 121) = (   0.1666667   0.3333333   0.5000000  )
       122           Ge  tau( 122) = (   0.5000000   0.3333333   0.5000000  )
       123           Ge  tau( 123) = (   0.8333333   0.3333333   0.5000000  )
       124           Ge  tau( 124) = (   0.1666667   0.6666667   0.5000000  )
       125           Ge  tau( 125) = (   0.5000000   0.6666667   0.5000000  )
       126           Ge  tau( 126) = (   0.8333333   0.6666667   0.5000000  )
       127           Ge  tau( 127) = (   0.1666667   0.0000000   0.8333333  )
       128           Ge  tau( 128) = (   0.5000000   0.0000000   0.8333333  )
       129           Ge  tau( 129) = (   0.8333333   0.0000000   0.8333333  )
       130           Ge  tau( 130) = (   0.1666667   0.3333333   0.8333333  )
       131           Ge  tau( 131) = (   0.5000000   0.3333333   0.8333333  )
       132           Ge  tau( 132) = (   0.8333333   0.3333333   0.8333333  )
       133           Ge  tau( 133) = (   0.1666667   0.6666667   0.8333333  )
       134           Ge  tau( 134) = (   0.5000000   0.6666667   0.8333333  )
       135           Ge  tau( 135) = (   0.8333333   0.6666667   0.8333333  )
       136           Ge  tau( 136) = (   0.2500000   0.0833333   0.2500000  )
       137           Ge  tau( 137) = (   0.5833333   0.0833333   0.2500000  )
       138           Ge  tau( 138) = (   0.9166667   0.0833333   0.2500000  )
       139           Ge  tau( 139) = (   0.2500000   0.4166667   0.2500000  )
       140           Ge  tau( 140) = (   0.5833333   0.4166667   0.2500000  )
       141           Ge  tau( 141) = (   0.9166667   0.4166667   0.2500000  )
       142           Ge  tau( 142) = (   0.2500000   0.7500000   0.2500000  )
       143           Ge  tau( 143) = (   0.5833333   0.7500000   0.2500000  )
       144           Ge  tau( 144) = (   0.9166667   0.7500000   0.2500000  )
       145           Ge  tau( 145) = (   0.2500000   0.0833333   0.5833333  )
       146           Ge  tau( 146) = (   0.5833333   0.0833333   0.5833333  )
       147           Ge  tau( 147) = (   0.9166667   0.0833333   0.5833333  )
       148           Ge  tau( 148) = (   0.2500000   0.4166667   0.5833333  )
       149           Ge  tau( 149) = (   0.5833333   0.4166667   0.5833333  )
       150           Ge  tau( 150) = (   0.9166667   0.4166667   0.5833333  )
       151           Ge  tau( 151) = (   0.2500000   0.7500000   0.5833333  )
       152           Ge  tau( 152) = (   0.5833333   0.7500000   0.5833333  )
       153           Ge  tau( 153) = (   0.9166667   0.7500000   0.5833333  )
       154           Ge  tau( 154) = (   0.2500000   0.0833333   0.9166667  )
       155           Ge  tau( 155) = (   0.5833333   0.0833333   0.9166667  )
       156           Ge  tau( 156) = (   0.9166667   0.0833333   0.9166667  )
       157           Ge  tau( 157) = (   0.2500000   0.4166667   0.9166667  )
       158           Ge  tau( 158) = (   0.5833333   0.4166667   0.9166667  )
       159           Ge  tau( 159) = (   0.9166667   0.4166667   0.9166667  )
       160           Ge  tau( 160) = (   0.2500000   0.7500000   0.9166667  )
       161           Ge  tau( 161) = (   0.5833333   0.7500000   0.9166667  )
       162           Ge  tau( 162) = (   0.9166667   0.7500000   0.9166667  )
       163           Ge  tau( 163) = (   0.0000000   0.1666667   0.1666667  )
       164           Ge  tau( 164) = (   0.3333333   0.1666667   0.1666667  )
       165           Ge  tau( 165) = (   0.6666667   0.1666667   0.1666667  )
       166           Ge  tau( 166) = (   0.0000000   0.5000000   0.1666667  )
       167           Ge  tau( 167) = (   0.3333333   0.5000000   0.1666667  )
       168           Ge  tau( 168) = (   0.6666667   0.5000000   0.1666667  )
       169           Ge  tau( 169) = (   0.0000000   0.8333333   0.1666667  )
       170           Ge  tau( 170) = (   0.3333333   0.8333333   0.1666667  )
       171           Ge  tau( 171) = (   0.6666667   0.8333333   0.1666667  )
       172           Ge  tau( 172) = (   0.0000000   0.1666667   0.5000000  )
       173           Ge  tau( 173) = (   0.3333333   0.1666667   0.5000000  )
       174           Ge  tau( 174) = (   0.6666667   0.1666667   0.5000000  )
       175           Ge  tau( 175) = (   0.0000000   0.5000000   0.5000000  )
       176           Ge  tau( 176) = (   0.3333333   0.5000000   0.5000000  )
       177           Ge  tau( 177) = (   0.6666667   0.5000000   0.5000000  )
       178           Ge  tau( 178) = (   0.0000000   0.8333333   0.5000000  )
       179           Ge  tau( 179) = (   0.3333333   0.8333333   0.5000000  )
       180           Ge  tau( 180) = (   0.6666667   0.8333333   0.5000000  )
       181           Ge  tau( 181) = (   0.0000000   0.1666667   0.8333333  )
       182           Ge  tau( 182) = (   0.3333333   0.1666667   0.8333333  )
       183           Ge  tau( 183) = (   0.6666667   0.1666667   0.8333333  )
       184           Ge  tau( 184) = (   0.0000000   0.5000000   0.8333333  )
       185           Ge  tau( 185) = (   0.3333333   0.5000000   0.8333333  )
       186           Ge  tau( 186) = (   0.6666667   0.5000000   0.8333333  )
       187           Ge  tau( 187) = (   0.0000000   0.8333333   0.8333333  )
       188           Ge  tau( 188) = (   0.3333333   0.8333333   0.8333333  )
       189           Ge  tau( 189) = (   0.6666667   0.8333333   0.8333333  )
       190           Ge  tau( 190) = (   0.0833333   0.2500000   0.2500000  )
       191           Ge  tau( 191) = (   0.4166667   0.2500000   0.2500000  )
       192           Ge  tau( 192) = (   0.7500000   0.2500000   0.2500000  )
       193           Ge  tau( 193) = (   0.0833333   0.5833333   0.2500000  )
       194           Ge  tau( 194) = (   0.4166667   0.5833333   0.2500000  )
       195           Ge  tau( 195) = (   0.7500000   0.5833333   0.2500000  )
       196           Ge  tau( 196) = (   0.0833333   0.9166667   0.2500000  )
       197           Ge  tau( 197) = (   0.4166667   0.9166667   0.2500000  )
       198           Ge  tau( 198) = (   0.7500000   0.9166667   0.2500000  )
       199           Ge  tau( 199) = (   0.0833333   0.2500000   0.5833333  )
       200           Ge  tau( 200) = (   0.4166667   0.2500000   0.5833333  )
       201           Ge  tau( 201) = (   0.7500000   0.2500000   0.5833333  )
       202           Ge  tau( 202) = (   0.0833333   0.5833333   0.5833333  )
       203           Ge  tau( 203) = (   0.4166667   0.5833333   0.5833333  )
       204           Ge  tau( 204) = (   0.7500000   0.5833333   0.5833333  )
       205           Ge  tau( 205) = (   0.0833333   0.9166667   0.5833333  )
       206           Ge  tau( 206) = (   0.4166667   0.9166667   0.5833333  )
       207           Ge  tau( 207) = (   0.7500000   0.9166667   0.5833333  )
       208           Ge  tau( 208) = (   0.0833333   0.2500000   0.9166667  )
       209           Ge  tau( 209) = (   0.4166667   0.2500000   0.9166667  )
       210           Ge  tau( 210) = (   0.7500000   0.2500000   0.9166667  )
       211           Ge  tau( 211) = (   0.0833333   0.5833333   0.9166667  )
       212           Ge  tau( 212) = (   0.4166667   0.5833333   0.9166667  )
       213           Ge  tau( 213) = (   0.7500000   0.5833333   0.9166667  )
       214           Ge  tau( 214) = (   0.0833333   0.9166667   0.9166667  )
       215           Ge  tau( 215) = (   0.4166667   0.9166667   0.9166667  )
       216           Ge  tau( 216) = (   0.7500000   0.9166667   0.9166667  )

     number of k points=     1  Gaussian smearing, width (Ry)=  0.0100
                       cart. coord. in units 2pi/alat
        k(    1) = (   0.0000000   0.0000000   0.0000000), wk =   2.0000000

     Dense  grid:  1093169 G-vectors     FFT dimensions: ( 162, 162, 162)

     Estimated max dynamical RAM per process >     556.97 MB

     Estimated total dynamical RAM >      30.46 GB

     Initial potential from superposition of free atoms

     starting charge 3023.82226, renormalised to 3024.00000
     Starting wfcs are 1944 randomized atomic wfcs

     total cpu time spent up to now is       12.4 secs

     Self-consistent Calculation

     iteration #  1     ecut=    60.00 Ry     beta= 0.50
     Davidson diagonalization with overlap
     ethr =  1.00E-02,  avg # of iterations =  5.0

     Threshold (ethr) on eigenvalues was too large:
     Diagonalizing with lowered threshold

     Davidson diagonalization with overlap
     ethr =  1.13E-04,  avg # of iterations =  9.0

     total cpu time spent up to now is      116.7 secs

     total energy              =  -38579.18901352 Ry
     estimated scf accuracy    <       3.79373497 Ry

     iteration #  2     ecut=    60.00 Ry     beta= 0.50
     Davidson diagonalization with overlap
     ethr =  1.25E-04,  avg # of iterations =  1.0

     total cpu time spent up to now is      146.4 secs

     total energy              =  -38579.16761498 Ry
     estimated scf accuracy    <       0.73273039 Ry

     iteration #  3     ecut=    60.00 Ry     beta= 0.50
     Davidson diagonalization with overlap
     ethr =  2.42E-05,  avg # of iterations =  2.0

     total cpu time spent up to now is      180.8 secs

     total energy              =  -38579.22137085 Ry
     estimated scf accuracy    <       0.01315628 Ry

     iteration #  4     ecut=    60.00 Ry     beta= 0.50
     Davidson diagonalization with overlap
     ethr =  4.35E-07,  avg # of iterations =  5.0

     total cpu time spent up to now is      232.6 secs

     total energy              =  -38579.22354544 Ry
     estimated scf accuracy    <       0.00211141 Ry

     iteration #  5     ecut=    60.00 Ry     beta= 0.50
     Davidson diagonalization with overlap
     ethr =  6.98E-08,  avg # of iterations =  3.0

     total cpu time spent up to now is      269.7 secs

     total energy              =  -38579.22332524 Ry
     estimated scf accuracy    <       0.00993292 Ry

     iteration #  6     ecut=    60.00 Ry     beta= 0.50
     Davidson diagonalization with overlap
     ethr =  6.98E-08,  avg # of iterations =  2.0

     total cpu time spent up to now is      304.6 secs

     total energy              =  -38579.22425514 Ry
     estimated scf accuracy    <       0.00118796 Ry

     iteration #  7     ecut=    60.00 Ry     beta= 0.50
     Davidson diagonalization with overlap
     ethr =  3.93E-08,  avg # of iterations =  2.0

     total cpu time spent up to now is      338.7 secs

     total energy              =  -38579.22439220 Ry
     estimated scf accuracy    <       0.00008539 Ry

     iteration #  8     ecut=    60.00 Ry     beta= 0.50
     Davidson diagonalization with overlap
     ethr =  2.82E-09,  avg # of iterations =  4.0

     total cpu time spent up to now is      375.2 secs

     total energy              =  -38579.22440515 Ry
     estimated scf accuracy    <       0.00003059 Ry

     iteration #  9     ecut=    60.00 Ry     beta= 0.50
     Davidson diagonalization with overlap
     ethr =  1.01E-09,  avg # of iterations =  2.0

     total cpu time spent up to now is      410.1 secs

     total energy              =  -38579.22440980 Ry
     estimated scf accuracy    <       0.00000142 Ry

     iteration # 10     ecut=    60.00 Ry     beta= 0.50
     Davidson diagonalization with overlap
     ethr =  4.70E-11,  avg # of iterations =  4.0

     total cpu time spent up to now is      447.5 secs

     total energy              =  -38579.22441045 Ry
     estimated scf accuracy    <       0.00000066 Ry

     iteration # 11     ecut=    60.00 Ry     beta= 0.50
     Davidson diagonalization with overlap
     ethr =  2.17E-11,  avg # of iterations =  3.0

     total cpu time spent up to now is      484.9 secs

     total energy              =  -38579.22441035 Ry
     estimated scf accuracy    <       0.00000182 Ry

     iteration # 12     ecut=    60.00 Ry     beta= 0.50
     Davidson diagonalization with overlap
     ethr =  2.17E-11,  avg # of iterations =  2.0

     total cpu time spent up to now is      519.6 secs

     total energy              =  -38579.22441067 Ry
     estimated scf accuracy    <       0.00000038 Ry

     iteration # 13     ecut=    60.00 Ry     beta= 0.50
     Davidson diagonalization with overlap
     ethr =  1.27E-11,  avg # of iterations =  2.0

     total cpu time spent up to now is      554.9 secs

     total energy              =  -38579.22441072 Ry
     estimated scf accuracy    <       0.00000005 Ry

     iteration # 14     ecut=    60.00 Ry     beta= 0.50
     Davidson diagonalization with overlap
     ethr =  1.82E-12,  avg # of iterations =  3.0

     total cpu time spent up to now is      591.0 secs

     total energy              =  -38579.22441073 Ry
     estimated scf accuracy    <       0.00000004 Ry

     iteration # 15     ecut=    60.00 Ry     beta= 0.50
     Davidson diagonalization with overlap
     ethr =  1.46E-12,  avg # of iterations =  2.0

     total cpu time spent up to now is      625.6 secs

     End of self-consistent calculation

          k = 0.0000 0.0000 0.0000 (136605 PWs)   bands (ev):

   -16.0878 -16.0877 -16.0875 -16.0875 -16.0875 -16.0874 -16.0874 -16.0874
   -16.0874 -16.0874 -16.0872 -16.0872 -16.0757 -16.0754 -16.0754 -16.0754
   -16.0753 -16.0753 -16.0753 -16.0753 -16.0753 -16.0752 -16.0752 -16.0752
   -16.0742 -16.0739 -16.0738 -16.0738 -16.0738 -16.0738 -16.0738 -16.0737
   -16.0737 -16.0737 -16.0737 -16.0737 -16.0737 -16.0737 -16.0737 -16.0737
   -16.0737 -16.0736 -16.0736 -16.0736 -16.0736 -16.0736 -16.0735 -16.0734
   -16.0723 -16.0721 -16.0721 -16.0720 -16.0720 -16.0720 -16.0719 -16.0719
   -16.0719 -16.0719 -16.0719 -16.0719 -16.0719 -16.0719 -16.0719 -16.0719
   -16.0719 -16.0719 -16.0719 -16.0718 -16.0718 -16.0718 -16.0718 -16.0716
   -16.0695 -16.0692 -16.0691 -16.0690 -16.0690 -16.0690 -16.0690 -16.0690
   -16.0689 -16.0689 -16.0689 -16.0689 -16.0689 -16.0689 -16.0689 -16.0688
   -16.0688 -16.0688 -16.0688 -16.0688 -16.0688 -16.0688 -16.0688 -16.0688
   -16.0688 -16.0688 -16.0687 -16.0687 -16.0687 -16.0687 -16.0687 -16.0687
   -16.0687 -16.0687 -16.0686 -16.0686 -16.0686 -16.0686 -16.0686 -16.0686
   -16.0686 -16.0686 -16.0686 -16.0685 -16.0685 -16.0684 -16.0683 -16.0680
   -16.0659 -16.0658 -16.0658 -16.0658 -16.0657 -16.0657 -16.0657 -16.0657
   -16.0657 -16.0657 -16.0657 -16.0655 -16.0607 -16.0604 -16.0604 -16.0604
   -16.0603 -16.0603 -16.0603 -16.0603 -16.0603 -16.0603 -16.0602 -16.0602
   -16.0602 -16.0602 -16.0602 -16.0601 -16.0598 -16.0597 -16.0597 -16.0597
   -16.0597 -16.0596 -16.0596 -16.0596 -16.0596 -16.0596 -16.0596 -16.0596
   -16.0596 -16.0596 -16.0595 -16.0595 -16.0595 -16.0595 -16.0595 -16.0595
   -16.0595 -16.0594 -16.0594 -16.0591 -16.0580 -16.0579 -16.0579 -16.0579
   -16.0578 -16.0577 -16.0565 -16.0565 -16.0565 -16.0564 -16.0564 -16.0564
   -16.0564 -16.0564 -16.0563 -16.0563 -16.0563 -16.0561 -16.0539 -16.0538
   -16.0538 -16.0538 -16.0538 -16.0538 -16.0537 -16.0537 -16.0537 -16.0537
   -16.0537 -16.0535 -16.0516 -16.0516 -16.0515 -16.0515 -16.0515 -16.0515
   -16.0515 -16.0515 -16.0515 -16.0514 -16.0514 -16.0512 -16.0485 -16.0485
   -16.0484 -16.0452 -16.0452 -16.0452 -16.0452 -16.0451 -16.0451 -16.0296
   -16.0296 -16.0283 -16.0282 -16.0282 -16.0282 -16.0282 -16.0281 -16.0281
   -16.0281 -16.0281 -16.0281 -16.0280 -16.0280 -16.0273 -16.0273 -16.0273
   -16.0273 -16.0272 -16.0272 -16.0272 -16.0272 -16.0217 -16.0217 -16.0217
   -16.0217 -16.0217 -16.0216 -16.0042 -16.0041 -16.0039 -16.0039 -16.0039
   -16.0039 -16.0039 -16.0039 -16.0039 -16.0038 -16.0038 -16.0038 -16.0038
   -16.0038 -16.0038 -16.0038 -16.0038 -16.0038 -16.0038 -16.0037 -16.0037
   -16.0037 -16.0036 -16.0035 -16.0012 -16.0011 -16.0011 -16.0010 -16.0010
   -16.0010 -16.0010 -16.0010 -16.0010 -16.0010 -16.0010 -16.0009 -16.0009
   -16.0009 -16.0009 -16.0009 -16.0009 -16.0009 -16.0009 -16.0009 -16.0008
   -16.0008 -16.0008 -16.0007 -15.9980 -15.9980 -15.9979 -15.9979 -15.9978
   -15.9978 -15.9940 -15.9940 -15.9940 -15.9939 -15.9939 -15.9939 -15.9939
   -15.9939 -15.9938 -15.9938 -15.9938 -15.9938 -15.9867 -15.9867 -15.9866
   -15.9866 -15.9866 -15.9866 -15.9859 -15.9859 -15.9859 -15.9859 -15.9858
   -15.9858 -15.9858 -15.9858 -15.9857 -15.9857 -15.9857 -15.9857 -15.9813
   -15.9813 -15.9813 -15.9812 -15.9812 -15.9812 -15.9791 -15.9791 -15.9790
   -15.9790 -15.9790 -15.9790 -15.9789 -15.9789 -15.9789 -15.9789 -15.9789
   -15.9789 -15.9788 -15.9788 -15.9787 -15.9787 -15.9688 -15.9688 -15.9687
   -15.9687 -15.9687 -15.9687 -15.9687 -15.9687 -15.9686 -15.9686 -15.9686
   -15.9686 -15.9686 -15.9686 -15.9686 -15.9686 -15.9686 -15.9686 -15.9686
   -15.9686 -15.9685 -15.9685 -15.9685 -15.9685 -15.9682 -15.9682 -15.9681
   -15.9681 -15.9681 -15.9681 -15.9681 -15.9681 -15.9680 -15.9680 -15.9680
   -15.9680 -15.9581 -15.9581 -15.9580 -15.9580 -15.9579 -15.9579 -15.9579
   -15.9579 -15.9579 -15.9579 -15.9579 -15.9579 -15.9579 -15.9579 -15.9579
   -15.9578 -15.9578 -15.9578 -15.9578 -15.9578 -15.9577 -15.9577 -15.9576
   -15.9576 -15.9541 -15.9540 -15.9540 -15.9539 -15.9539 -15.9539 -15.9539
   -15.9539 -15.9538 -15.9538 -15.9538 -15.9538 -15.9538 -15.9538 -15.9538
   -15.9538 -15.9538 -15.9538 -15.9538 -15.9537 -15.9537 -15.9537 -15.9537
   -15.9536 -15.9536 -15.9536 -15.9536 -15.9536 -15.9534 -15.9534 -15.9500
   -15.9500 -15.9500 -15.9500 -15.9500 -15.9499 -15.9499 -15.9499 -15.9499
   -15.9499 -15.9499 -15.9499 -15.9499 -15.9499 -15.9499 -15.9498 -15.9498
   -15.9498 -15.9498 -15.9498 -15.9498 -15.9498 -15.9497 -15.9497 -15.9348
   -15.9348 -15.9347 -15.9347 -15.9347 -15.9347 -15.9347 -15.9347 -15.9347
   -15.9347 -15.9346 -15.9346 -15.9292 -15.9291 -15.9291 -15.9291 -15.9291
   -15.9291 -15.9290 -15.9290 -15.9290 -15.9290 -15.9290 -15.9289 -15.9252
   -15.9252 -15.9252 -15.9251 -15.9251 -15.9251 -15.9251 -15.9251 -15.9251
   -15.9251 -15.9250 -15.9250 -15.9250 -15.9250 -15.9250 -15.9250 -15.9250
   -15.9250 -15.9250 -15.9249 -15.9249 -15.9249 -15.9249 -15.9249 -15.9230
   -15.9230 -15.9230 -15.9230 -15.9230 -15.9230 -15.9186 -15.9185 -15.9185
   -15.9185 -15.9185 -15.9185 -15.9185 -15.9184 -15.9184 -15.9184 -15.9184
   -15.9184 -15.9130 -15.9130 -15.9129 -15.9129 -15.9129 -15.9129 -15.9116
   -15.9116 -15.9115 -15.9115 -15.9115 -15.9115 -15.9115 -15.9115 -15.9115
   -15.9114 -15.9114 -15.9114 -15.9114 -15.9114 -15.9114 -15.9114 -15.9114
   -15.9114 -15.9114 -15.9114 -15.9113 -15.9113 -15.9113 -15.9113 -15.9101
   -15.9101 -15.9101 -15.9100 -15.9100 -15.9100 -15.9100 -15.9100 -15.9100
   -15.9100 -15.9100 -15.9100 -15.9100 -15.9100 -15.9099 -15.9099 -15.9099
   -15.9099 -15.9099 -15.9099 -15.9099 -15.9099 -15.9098 -15.9097 -15.9033
   -15.9033 -15.9033 -15.9032 -15.9032 -15.9032 -15.9032 -15.9032 -15.9032
   -15.9031 -15.9031 -15.9031 -15.8999 -15.8999 -15.8999 -15.8999 -15.8998
   -15.8998 -15.8872 -15.8872 -15.8871 -15.8871 -15.8871 -15.8871 -15.8871
   -15.8871 -15.8871 -15.8871 -15.8871 -15.8871 -15.8871 -15.8870 -15.8870
   -15.8870 -15.8870 -15.8870 -15.8870 -15.8870 -15.8870 -15.8870 -15.8869
   -15.8869 -15.8803 -15.8803 -15.8803 -15.8803 -15.8803 -15.8803 -15.8803
   -15.8802 -15.8802 -15.8802 -15.8802 -15.8802 -15.8802 -15.8802 -15.8802
   -15.8802 -15.8802 -15.8802 -15.8802 -15.8802 -15.8802 -15.8801 -15.8801
   -15.8801 -15.8686 -15.8685 -15.8685 -15.8685 -15.8685 -15.8685 -15.8685
   -15.8685 -15.8685 -15.8684 -15.8684 -15.8684 -15.8671 -15.8670 -15.8670
   -15.8670 -15.8670 -15.8670 -15.8666 -15.8666 -15.8666 -15.8666 -15.8665
   -15.8665 -15.8665 -15.8665 -15.8665 -15.8665 -15.8665 -15.8664 -15.8659
   -15.8659 -15.8659 -15.8659 -15.8658 -15.8658 -15.8649 -15.8648 -15.8647
   -15.8647 -15.8647 -15.8646 -15.8646 -15.8646 -15.8646 -15.8646 -15.8646
   -15.8646 -15.8646 -15.8646 -15.8646 -15.8645 -15.8645 -15.8645 -15.8645
   -15.8645 -15.8645 -15.8645 -15.8645 -15.8645 -15.8645 -15.8645 -15.8645
   -15.8645 -15.8644 -15.8644 -15.8644 -15.8644 -15.8644 -15.8644 -15.8644
   -15.8644 -15.8644 -15.8644 -15.8644 -15.8644 -15.8644 -15.8643 -15.8643
   -15.8643 -15.8642 -15.8642 -15.8642 -15.8640 -15.8570 -15.8570 -15.8570
   -15.8569 -15.8569 -15.8569 -15.8569 -15.8568 -15.8568 -15.8568 -15.8568
   -15.8568 -15.8568 -15.8568 -15.8567 -15.8567 -15.8561 -15.8561 -15.8561
   -15.8560 -15.8560 -15.8560 -15.8514 -15.8513 -15.8513 -15.8513 -15.8513
   -15.8513 -15.8513 -15.8513 -15.8513 -15.8512 -15.8512 -15.8512 -15.8512
   -15.8512 -15.8512 -15.8512 -15.8512 -15.8511 -15.8511 -15.8511 -15.8511
   -15.8511 -15.8511 -15.8510 -15.8487 -15.8486 -15.8486 -15.8466 -15.8466
   -15.8466 -15.8465 -15.8465 -15.8465 -15.8465 -15.8465 -15.8465 -15.8465
   -15.8465 -15.8465 -15.8461 -15.8461 -15.8460 -15.8460 -15.8460 -15.8460
   -15.8460 -15.8460 -15.8460 -15.8460 -15.8460 -15.8460 -15.8460 -15.8460
   -15.8459 -15.8459 -15.8459 -15.8459 -15.8459 -15.8459 -15.8459 -15.8459
   -15.8458 -15.8458 -15.8379 -15.8379 -15.8378 -15.8378 -15.8378 -15.8378
   -15.8378 -15.8377 -15.8283 -15.8283 -15.8283 -15.8283 -15.8282 -15.8282
   -15.8253 -15.8253 -15.8238 -15.8238 -15.8238 -15.8237 -15.8237 -15.8237
   -15.8237 -15.8237 -15.8237 -15.8237 -15.8237 -15.8237 -15.8165 -15.8165
   -15.8164 -15.8164 -15.8164 -15.8164 -15.8123 -15.8123 -15.8122 -15.8122
   -15.8122 -15.8122 -15.8122 -15.8122 -15.8122 -15.8122 -15.8121 -15.8121
   -15.8056 -15.8055 -15.8055 -15.8055 -15.8055 -15.8055 -15.7931 -15.7931
   -15.7931 -15.7930 -15.7930 -15.7930 -15.7930 -15.7930 -15.7930 -15.7929
   -15.7929 -15.7929 -15.7922 -15.7922 -15.7921 -15.7921 -15.7921 -15.7921
   -15.7921 -15.7921 -15.7921 -15.7920 -15.7920 -15.7920 -15.7920 -15.7920
   -15.7919 -15.7919 -15.7877 -15.7876 -15.7876 -15.7876 -15.7876 -15.7876
   -15.7876 -15.7876 -15.7876 -15.7876 -15.7876 -15.7875 -15.7810 -15.7810
   -15.7810 -15.7810 -15.7810 -15.7810 -15.7809 -15.7809 -15.7809 -15.7809
   -15.7809 -15.7809 -15.7771 -15.7770 -15.7769 -15.7769 -15.7769 -15.7769
   -15.7769 -15.7769 -15.7769 -15.7769 -15.7769 -15.7768 -15.7768 -15.7768
   -15.7768 -15.7768 -15.7768 -15.7768 -15.7768 -15.7768 -15.7768 -15.7767
   -15.7767 -15.7767 -15.7755 -15.7755 -15.7755 -15.7754 -15.7754 -15.7754
   -15.7754 -15.7754 -15.7754 -15.7754 -15.7754 -15.7753 -15.7733 -15.7733
   -15.7732 -15.7732 -15.7732 -15.7732 -15.7731 -15.7731 -15.7731 -15.7731
   -15.7731 -15.7731 -15.7731 -15.7731 -15.7731 -15.7731 -15.7731 -15.7731
   -15.7731 -15.7730 -15.7730 -15.7730 -15.7729 -15.7729 -15.7722 -15.7722
   -15.7722 -15.7722 -15.7721 -15.7721 -15.7721 -15.7721 -15.7721 -15.7721
   -15.7721 -15.7721 -15.7721 -15.7721 -15.7721 -15.7721 -15.7721 -15.7720
   -15.7720 -15.7720 -15.7720 -15.7720 -15.7719 -15.7719 -15.7685 -15.7685
   -15.7685 -15.7685 -15.7684 -15.7684 -15.7684 -15.7684 -15.7684 -15.7684
   -15.7684 -15.7684 -15.7684 -15.7684 -15.7684 -15.7683 -15.7683 -15.7683
   -15.7683 -15.7683 -15.7683 -15.7683 -15.7683 -15.7682 -15.7675 -15.7674
   -15.7674 -15.7674 -15.7673 -15.7673 -15.7673 -15.7672 -15.7672 -15.7672
   -15.7672 -15.7672 -15.7672 -15.7671 -15.7671 -15.7671 -15.7671 -15.7671
   -15.7671 -15.7671 -15.7671 -15.7670 -15.7670 -15.7670 -15.7670 -15.7670
   -15.7670 -15.7670 -15.7670 -15.7670 -15.7669 -15.7669 -15.7669 -15.7669
   -15.7669 -15.7667 -15.7630 -15.7630 -15.7629 -15.7629 -15.7629 -15.7629
    -3.5562  -3.1277  -3.1274  -3.1273  -3.1273  -3.1272  -3.1269  -2.7212
    -2.7204  -2.7201  -2.7201  -2.7201  -2.7201  -2.7201  -2.7201  -2.7200
    -2.7200  -2.7198  -2.7190  -2.3582  -2.3576  -2.3575  -2.3574  -2.3574
    -2.3574  -2.3572  -2.3566  -1.8686  -1.8681  -1.8679  -1.8679  -1.8677
    -1.8673  -1.5534  -1.5516  -1.5509  -1.5509  -1.5508  -1.5508  -1.5508
    -1.5507  -1.5507  -1.5507  -1.5507  -1.5507  -1.5507  -1.5507  -1.5507
    -1.5507  -1.5507  -1.5506  -1.5506  -1.5506  -1.5505  -1.5505  -1.5498
    -1.5482  -1.4268  -1.4254  -1.4247  -1.4246  -1.4246  -1.4246  -1.4245
    -1.4245  -1.4245  -1.4245  -1.4245  -1.4245  -1.4245  -1.4245  -1.4245
    -1.4245  -1.4245  -1.4245  -1.4245  -1.4244  -1.4244  -1.4243  -1.4236
    -1.4221  -0.7455  -0.7448  -0.7444  -0.7444  -0.7443  -0.7443  -0.7442
    -0.7442  -0.7442  -0.7442  -0.7437  -0.7430   0.1258   0.1262   0.1265
     0.1265   0.1268   0.1271   0.1850   0.1863   0.1874   0.1874   0.1874
     0.1875   0.1875   0.1875   0.1875   0.1875   0.1875   0.1875   0.1875
     0.1875   0.1875   0.1875   0.1875   0.1876   0.1876   0.1876   0.1876
     0.1877   0.1888   0.1901   1.1324   1.1330   1.1336   1.1336   1.1336
     1.1336   1.1338   1.1338   1.1338   1.1338   1.1344   1.1350   1.6006
     1.6020   1.6030   1.6030   1.6031   1.6031   1.6031   1.6031   1.6031
     1.6031   1.6031   1.6031   1.6031   1.6031   1.6032   1.6032   1.6032
     1.6032   1.6032   1.6032   1.6033   1.6033   1.6043   1.6057   2.1444
     2.1450   2.1464   2.1464   2.1465   2.1465   2.1465   2.1465   2.1465
     2.1466   2.1466   2.1466   2.1466   2.1466   2.1466   2.1466   2.1466
     2.1466   2.1466   2.1466   2.1467   2.1467   2.1482   2.1487   2.6717
     2.6717   2.6722   2.6722   2.6726   2.6727   2.8672   2.8674   2.8678
     2.8679   2.8679   2.8680   2.8683   2.8685   4.1176   4.1178   4.1185
     4.1185   4.1185   4.1185   4.1186   4.1186   4.1186   4.1186   4.1193
     4.1194   4.6478   4.6483   4.6484   4.6484   4.6484   4.6485   4.6486
     4.6486   4.6486   4.6486   4.6487   4.6492   5.3248   5.3254   5.3258
     5.3258   5.3259   5.3260   5.3260   5.3260   5.3260   5.3260   5.3260
     5.3261   5.3261   5.3261   5.3261   5.3261   5.3261   5.3261   5.3261
     5.3262   5.3263   5.3263   5.3267   5.3272   5.3549   5.3550   5.3553
     5.3558   5.3558   5.3559   5.3559   5.3559   5.3559   5.3559   5.3559
     5.3559   5.3559   5.3559   5.3559   5.3560   5.3560   5.3560   5.3560
     5.3560   5.3561   5.3566   5.3569   5.3570   5.5408   5.5410   5.5413
     5.5413   5.5415   5.5418   5.8559   5.8559   5.8565   5.8570   5.8570
     5.8571   5.8571   5.8571   5.8571   5.8571   5.8571   5.8571   5.8571
     5.8571   5.8571   5.8571   5.8571   5.8572   5.8572   5.8572   5.8573
     5.8577   5.8583   5.8583   5.9298   5.9301   5.9301   5.9301   5.9301
     5.9304   6.3746   6.3752   6.3753   6.3754   6.3754   6.3754   6.3754
     6.3754   6.3754   6.3755   6.3756   6.3761   6.4385   6.4389   6.4390
     6.4393   6.4393   6.4393   6.4394   6.4394   6.4394   6.4397   6.4398
     6.4402   6.5301   6.5304   6.5312   6.5313   6.5313   6.5315   6.5315
     6.5315   6.5315   6.5315   6.5315   6.5315   6.5316   6.5316   6.5316
     6.5316   6.5316   6.5316   6.5316   6.5317   6.5318   6.5318   6.5327
     6.5330   6.6480   6.6483   6.6485   6.6486   6.6486   6.6487   6.6487
     6.6487   6.6488   6.6488   6.6491   6.6494   6.9704   6.9714   6.9720
     6.9720   6.9720   6.9722   6.9722   6.9722   6.9722   6.9722   6.9722
     6.9722   6.9722   6.9722   6.9723   6.9723   6.9723   6.9723   6.9723
     6.9724   6.9724   6.9725   6.9731   6.9741   7.6190   7.6199   7.6201
     7.6201   7.6202   7.6202   7.6202   7.6202   7.6202   7.6202   7.6204
     7.6213   7.7227   7.7240   7.7242   7.7242   7.7243   7.7243   7.7243
     7.7243   7.7243   7.7244   7.7244   7.7244   7.7245   7.7245   7.7247
     7.7260   8.1655   8.1665   8.1668   8.1668   8.1669   8.1669   8.1669
     8.1669   8.1670   8.1670   8.1673   8.1683   8.3637   8.8217   8.8221
     8.8226   9.0630   9.0633   9.0635   9.0635   9.0636   9.0636   9.0638
     9.0640   9.5470   9.5472   9.5475   9.5475   9.5479   9.5480   9.6396
     9.6397   9.6401   9.6401   9.6404   9.6405  10.2556  10.2558  10.2565
    10.2565  10.2565  10.2566  10.2566  10.2566  10.2566  10.2566  10.2572
    10.2574  10.3394  10.3396  10.3403  10.3406  10.3406  10.3407  10.3407
    10.3407  10.3407  10.3407  10.3408  10.3408  10.3408  10.3408  10.3408
    10.3408  10.3408  10.3408  10.3409  10.3409  10.3410  10.3413  10.3419
    10.3422  10.4233  10.4235  10.4238  10.4238  10.4241  10.4244  10.5400
    10.5405  10.5405  10.5407  10.5407  10.5407  10.5408  10.5408  10.5408
    10.5409  10.5409  10.5414  10.7763  10.7763  10.7766  10.7766  10.7769
    10.7770  11.2544  11.2545  11.2547  11.2547  11.2549  11.2549  11.3472
    11.3476  11.3479  11.4747  11.4751  11.4759  11.4760  11.4762  11.4763
    11.4763  11.4763  11.4763  11.4763  11.4763  11.4764  11.4764  11.4764
    11.4764  11.4764  11.4764  11.4764  11.4764  11.4765  11.4767  11.4767
    11.4776  11.4779  11.5681  11.5686  11.5693  11.5696  11.5697  11.5698
    11.5698  11.5698  11.5698  11.5699  11.5699  11.5699  11.5699  11.5699
    11.5699  11.5699  11.5699  11.5699  11.5700  11.5700  11.5701  11.5705
    11.5711  11.5716  11.8043  11.8043  11.8053  11.8053  11.8055  11.8055
    11.8055  11.8055  11.8055  11.8055  11.8055  11.8056  11.8056  11.8056
    11.8056  11.8056  11.8056  11.8056  11.8056  11.8057  11.8058  11.8058
    11.8068  11.8068  12.3140  12.3147  12.3151  12.3152  12.3153  12.3153
    12.3153  12.3153  12.3154  12.3154  12.3158  12.3165  12.4825  12.4827
    12.4829  12.4832  12.4833  12.4833  12.4833  12.4833  12.4833  12.4837
    12.4838  12.4841  12.5059  12.5063  12.5072  12.5074  12.5075  12.5075
    12.5076  12.5076  12.5076  12.5076  12.5076  12.5076  12.5077  12.5077
    12.5077  12.5077  12.5077  12.5077  12.5078  12.5078  12.5080  12.5081
    12.5090  12.5094  12.5424  12.5426  12.5436  12.5436  12.5437  12.5437
    12.5437  12.5437  12.5438  12.5438  12.5438  12.5438  12.5439  12.5439
    12.5450  12.5453  13.0926  13.0931  13.0936  13.0936  13.0936  13.0937
    13.0937  13.0937  13.0937  13.0937  13.0942  13.0947  13.1708  13.1714
    13.1714  13.1721  13.1721  13.1722  13.1723  13.1723  13.1723  13.1723
    13.1723  13.1723  13.1724  13.1724  13.1724  13.1724  13.1724  13.1724
    13.1724  13.1726  13.1726  13.1733  13.1733  13.1739  13.6951  13.6954
    13.6966  13.6966  13.6969  13.6970  13.6970  13.6970  13.6970  13.6970
    13.6970  13.6970  13.6970  13.6970  13.6970  13.6970  13.6971  13.6971
    13.6971  13.6971  13.6974  13.6974  13.6986  13.6990  13.8062  13.8064
    13.8066  13.8067  13.8068  13.8069  13.8069  13.8070  13.8070  13.8072
    13.8074  13.8076  14.3448  14.3451  14.3452  14.3457

     the Fermi energy is     8.8535 ev

!    total energy              =  -38579.22441073 Ry
     estimated scf accuracy    <          9.1E-09 Ry
     smearing contrib. (-TS)   =      -0.02021741 Ry
     internal energy E=F+TS    =  -38579.20419332 Ry

     The total energy is F=E-TS. E is the sum of the following terms:
     one-electron contribution =  -20383.38484722 Ry
     hartree contribution      =   12175.48496133 Ry
     xc contribution           =   -9419.61135236 Ry
     ewald contribution        =  -20951.69295507 Ry

     convergence has been achieved in  15 iterations

     Forces acting on atoms (cartesian axes, Ry/au):

     atom    1 type  1   force =    -0.00414769    0.00000000    0.00000000
     atom    2 type  1   force =     0.00001115    0.00000000    0.00000000
     atom    3 type  1   force =     0.00001030    0.00000000    0.00000000
     atom    4 type  1   force =     0.00001263    0.00000290   -0.00000073
     atom    5 type  1   force =     0.00000916    0.00000924    0.00000425
     atom    6 type  1   force =     0.00000985   -0.00000540    0.00000452
     atom    7 type  1   force =     0.00001263   -0.00000290    0.00000073
     atom    8 type  1   force =     0.00000916   -0.00000924   -0.00000425
     atom    9 type  1   force =     0.00000985    0.00000540   -0.00000452
     atom   10 type  1   force =     0.00001263   -0.00000073    0.00000290
     atom   11 type  1   force =     0.00000916    0.00000425    0.00000924
     atom   12 type  1   force =     0.00000985    0.00000452   -0.00000540
     atom   13 type  1   force =    -0.00003158   -0.00000537   -0.00000537
     atom   14 type  1   force =     0.00001113   -0.00000070   -0.00000070
     atom   15 type  1   force =     0.00001345   -0.00000187   -0.00000187
     atom   16 type  1   force =    -0.00003102   -0.00000388    0.00000388
     atom   17 type  1   force =     0.00001114    0.00000106   -0.00000106
     atom   18 type  1   force =     0.00001133    0.00000173   -0.00000173
     atom   19 type  1   force =     0.00001263    0.00000073   -0.00000290
     atom   20 type  1   force =     0.00000916   -0.00000425   -0.00000924
     atom   21 type  1   force =     0.00000985   -0.00000452    0.00000540
     atom   22 type  1   force =    -0.00003102    0.00000388   -0.00000388
     atom   23 type  1   force =     0.00001114   -0.00000106    0.00000106
     atom   24 type  1   force =     0.00001133   -0.00000173    0.00000173
     atom   25 type  1   force =    -0.00003158    0.00000537    0.00000537
     atom   26 type  1   force =     0.00001113    0.00000070    0.00000070
     atom   27 type  1   force =     0.00001345    0.00000187    0.00000187
     atom   28 type  1   force =     0.00102633    0.00072665    0.00072665
     atom   29 type  1   force =    -0.00000948    0.00000058    0.00000058
     atom   30 type  1   force =    -0.00001875    0.00000973    0.00000973
     atom   31 type  1   force =    -0.00001040    0.00000206   -0.00000156
     atom   32 type  1   force =    -0.00000880    0.00000084   -0.00000186
     atom   33 type  1   force =    -0.00000620    0.00000228   -0.00000343
     atom   34 type  1   force =    -0.00002286    0.00000563    0.00002018
     atom   35 type  1   force =    -0.00000805    0.00000017   -0.00000284
     atom   36 type  1   force =    -0.00001158   -0.00000323    0.00001793
     atom   37 type  1   force =    -0.00001040   -0.00000156    0.00000206
     atom   38 type  1   force =    -0.00000880   -0.00000186    0.00000084
     atom   39 type  1   force =    -0.00000620   -0.00000343    0.00000228
     atom   40 type  1   force =     0.00000770   -0.00000108   -0.00000108
     atom   41 type  1   force =    -0.00001348   -0.00000099   -0.00000099
     atom   42 type  1   force =    -0.00001195   -0.00000292   -0.00000292
     atom   43 type  1   force =    -0.00001235   -0.00000066   -0.00000325
     atom   44 type  1   force =    -0.00001136    0.00000160    0.00000197
     atom   45 type  1   force =    -0.00001070    0.00001058    0.00000109
     atom   46 type  1   force =    -0.00002286    0.00002018    0.00000563
     atom   47 type  1   force =    -0.00000805   -0.00000284    0.00000017
     atom   48 type  1   force =    -0.00001158    0.00001793   -0.00000323
     atom   49 type  1   force =    -0.00001235   -0.00000325   -0.00000066
     atom   50 type  1   force =    -0.00001136    0.00000197    0.00000160
     atom   51 type  1   force =    -0.00001070    0.00000109    0.00001058
     atom   52 type  1   force =     0.00004916    0.00001745    0.00001745
     atom   53 type  1   force =    -0.00000979    0.00000141    0.00000141
     atom   54 type  1   force =    -0.00001126   -0.00000155   -0.00000155
     atom   55 type  1   force =     0.00007004    0.00005393    0.00002831
     atom   56 type  1   force =     0.00000911    0.00000191   -0.00000202
     atom   57 type  1   force =     0.00006872   -0.00004832    0.00002776
     atom   58 type  1   force =     0.00000767    0.00000000    0.00000000
     atom   59 type  1   force =     0.00001084    0.00000000    0.00000000
     atom   60 type  1   force =     0.00000780    0.00000000    0.00000000
     atom   61 type  1   force =     0.00007004   -0.00005393   -0.00002831
     atom   62 type  1   force =     0.00000911   -0.00000191    0.00000202
     atom   63 type  1   force =     0.00006872    0.00004832   -0.00002776
     atom   64 type  1   force =     0.00001417   -0.00001051    0.00000746
     atom   65 type  1   force =     0.00000940   -0.00000097    0.00000171
     atom   66 type  1   force =     0.00001430    0.00000845   -0.00000200
     atom   67 type  1   force =     0.00001387   -0.00000107   -0.00000531
     atom   68 type  1   force =     0.00001137   -0.00000035   -0.00000244
     atom   69 type  1   force =     0.00001518   -0.00000112    0.00000090
     atom   70 type  1   force =     0.00001367    0.00001021    0.00000458
     atom   71 type  1   force =     0.00000915    0.00000158   -0.00000044
     atom   72 type  1   force =     0.00001442   -0.00000820   -0.00000502
     atom   73 type  1   force =     0.00001367   -0.00001021   -0.00000458
     atom   74 type  1   force =     0.00000915   -0.00000158    0.00000044
     atom   75 type  1   force =     0.00001442    0.00000820    0.00000502
     atom   76 type  1   force =     0.00001387    0.00000107    0.00000531
     atom   77 type  1   force =     0.00001137    0.00000035    0.00000244
     atom   78 type  1   force =     0.00001518    0.00000112   -0.00000090
     atom   79 type  1   force =     0.00001417    0.00001051   -0.00000746
     atom   80 type  1   force =     0.00000940    0.00000097   -0.00000171
     atom   81 type  1   force =     0.00001430   -0.00000845    0.00000200
     atom   82 type  1   force =    -0.00001194    0.00000152   -0.00001821
     atom   83 type  1   force =    -0.00000787    0.00000347    0.00000227
     atom   84 type  1   force =    -0.00002330    0.00001115   -0.00001970
     atom   85 type  1   force =    -0.00000688    0.00000029    0.00000136
     atom   86 type  1   force =    -0.00000822   -0.00000108   -0.00000060
     atom   87 type  1   force =    -0.00000998   -0.00000068   -0.00000080
     atom   88 type  1   force =    -0.00001826    0.00000735   -0.00000735
     atom   89 type  1   force =    -0.00000881   -0.00000083    0.00000083
     atom   90 type  1   force =     0.00101680    0.00070661   -0.00070661
     atom   91 type  1   force =    -0.00001270    0.00000537   -0.00000100
     atom   92 type  1   force =    -0.00001102   -0.00000386   -0.00000235
     atom   93 type  1   force =    -0.00001241   -0.00000407    0.00000304
     atom   94 type  1   force =    -0.00001350   -0.00000041    0.00000041
     atom   95 type  1   force =    -0.00001255    0.00000111   -0.00000111
     atom   96 type  1   force =     0.00000930    0.00000122   -0.00000122
     atom   97 type  1   force =    -0.00000688   -0.00000136   -0.00000029
     atom   98 type  1   force =    -0.00000822    0.00000060    0.00000108
     atom   99 type  1   force =    -0.00000998    0.00000080    0.00000068
     atom  100 type  1   force =    -0.00001112   -0.00000142    0.00000142
     atom  101 type  1   force =    -0.00000865    0.00000099   -0.00000099
     atom  102 type  1   force =     0.00004994    0.00001829   -0.00001829
     atom  103 type  1   force =    -0.00001270    0.00000100   -0.00000537
     atom  104 type  1   force =    -0.00001102    0.00000235    0.00000386
     atom  105 type  1   force =    -0.00001241   -0.00000304    0.00000407
     atom  106 type  1   force =    -0.00001194    0.00001821   -0.00000152
     atom  107 type  1   force =    -0.00000787   -0.00000227   -0.00000347
     atom  108 type  1   force =    -0.00002330    0.00001970   -0.00001115
     atom  109 type  1   force =     0.00007004    0.00002831    0.00005393
     atom  110 type  1   force =     0.00000911   -0.00000202    0.00000191
     atom  111 type  1   force =     0.00006872    0.00002776   -0.00004832
     atom  112 type  1   force =     0.00001417    0.00000746   -0.00001051
     atom  113 type  1   force =     0.00000940    0.00000171   -0.00000097
     atom  114 type  1   force =     0.00001430   -0.00000200    0.00000845
     atom  115 type  1   force =     0.00001367   -0.00000458   -0.00001021
     atom  116 type  1   force =     0.00000915    0.00000044   -0.00000158
     atom  117 type  1   force =     0.00001442    0.00000502    0.00000820
     atom  118 type  1   force =     0.00000767    0.00000000    0.00000000
     atom  119 type  1   force =     0.00001084    0.00000000    0.00000000
     atom  120 type  1   force =     0.00000780    0.00000000    0.00000000
     atom  121 type  1   force =     0.00001387   -0.00000531   -0.00000107
     atom  122 type  1   force =     0.00001137   -0.00000244   -0.00000035
     atom  123 type  1   force =     0.00001518    0.00000090   -0.00000112
     atom  124 type  1   force =     0.00001387    0.00000531    0.00000107
     atom  125 type  1   force =     0.00001137    0.00000244    0.00000035
     atom  126 type  1   force =     0.00001518   -0.00000090    0.00000112
     atom  127 type  1   force =     0.00007004   -0.00002831   -0.00005393
     atom  128 type  1   force =     0.00000911    0.00000202   -0.00000191
     atom  129 type  1   force =     0.00006872   -0.00002776    0.00004832
     atom  130 type  1   force =     0.00001367    0.00000458    0.00001021
     atom  131 type  1   force =     0.00000915   -0.00000044    0.00000158
     atom  132 type  1   force =     0.00001442   -0.00000502   -0.00000820
     atom  133 type  1   force =     0.00001417   -0.00000746    0.00001051
     atom  134 type  1   force =     0.00000940   -0.00000171    0.00000097
     atom  135 type  1   force =     0.00001430    0.00000200   -0.00000845
     atom  136 type  1   force =    -0.00001194   -0.00001821    0.00000152
     atom  137 type  1   force =    -0.00000787    0.00000227    0.00000347
     atom  138 type  1   force =    -0.00002330   -0.00001970    0.00001115
     atom  139 type  1   force =    -0.00001270   -0.00000100    0.00000537
     atom  140 type  1   force =    -0.00001102   -0.00000235   -0.00000386
     atom  141 type  1   force =    -0.00001241    0.00000304   -0.00000407
     atom  142 type  1   force =    -0.00001112    0.00000142   -0.00000142
     atom  143 type  1   force =    -0.00000865   -0.00000099    0.00000099
     atom  144 type  1   force =     0.00004994   -0.00001829    0.00001829
     atom  145 type  1   force =    -0.00000688    0.00000136    0.00000029
     atom  146 type  1   force =    -0.00000822   -0.00000060   -0.00000108
     atom  147 type  1   force =    -0.00000998   -0.00000080   -0.00000068
     atom  148 type  1   force =    -0.00001350    0.00000041   -0.00000041
     atom  149 type  1   force =    -0.00001255   -0.00000111    0.00000111
     atom  150 type  1   force =     0.00000930   -0.00000122    0.00000122
     atom  151 type  1   force =    -0.00001270   -0.00000537    0.00000100
     atom  152 type  1   force =    -0.00001102    0.00000386    0.00000235
     atom  153 type  1   force =    -0.00001241    0.00000407   -0.00000304
     atom  154 type  1   force =    -0.00001826   -0.00000735    0.00000735
     atom  155 type  1   force =    -0.00000881    0.00000083   -0.00000083
     atom  156 type  1   force =     0.00101680   -0.00070661    0.00070661
     atom  157 type  1   force =    -0.00000688   -0.00000029   -0.00000136
     atom  158 type  1   force =    -0.00000822    0.00000108    0.00000060
     atom  159 type  1   force =    -0.00000998    0.00000068    0.00000080
     atom  160 type  1   force =    -0.00001194   -0.00000152    0.00001821
     atom  161 type  1   force =    -0.00000787   -0.00000347   -0.00000227
     atom  162 type  1   force =    -0.00002330   -0.00001115    0.00001970
     atom  163 type  1   force =    -0.00012226   -0.00002692   -0.00002692
     atom  164 type  1   force =     0.00001063    0.00000445    0.00000445
     atom  165 type  1   force =     0.00001127   -0.00000502   -0.00000502
     atom  166 type  1   force =     0.00000904    0.00000191   -0.00000192
     atom  167 type  1   force =     0.00001013   -0.00000082   -0.00000618
     atom  168 type  1   force =     0.00001128   -0.00000095    0.00000134
     atom  169 type  1   force =    -0.00012190   -0.00002996    0.00002996
     atom  170 type  1   force =     0.00001107   -0.00000717    0.00000717
     atom  171 type  1   force =     0.00001056    0.00000208   -0.00000208
     atom  172 type  1   force =     0.00000904   -0.00000192    0.00000191
     atom  173 type  1   force =     0.00001013   -0.00000618   -0.00000082
     atom  174 type  1   force =     0.00001128    0.00000134   -0.00000095
     atom  175 type  1   force =    -0.00001771    0.00000000    0.00000000
     atom  176 type  1   force =     0.00001206    0.00000000    0.00000000
     atom  177 type  1   force =     0.00001304    0.00000000    0.00000000
     atom  178 type  1   force =     0.00000904    0.00000192   -0.00000191
     atom  179 type  1   force =     0.00001013    0.00000618    0.00000082
     atom  180 type  1   force =     0.00001128   -0.00000134    0.00000095
     atom  181 type  1   force =    -0.00012190    0.00002996   -0.00002996
     atom  182 type  1   force =     0.00001107    0.00000717   -0.00000717
     atom  183 type  1   force =     0.00001056   -0.00000208    0.00000208
     atom  184 type  1   force =     0.00000904   -0.00000191    0.00000192
     atom  185 type  1   force =     0.00001013    0.00000082    0.00000618
     atom  186 type  1   force =     0.00001128    0.00000095   -0.00000134
     atom  187 type  1   force =    -0.00012226    0.00002692    0.00002692
     atom  188 type  1   force =     0.00001063   -0.00000445   -0.00000445
     atom  189 type  1   force =     0.00001127    0.00000502    0.00000502
     atom  190 type  1   force =     0.00004916   -0.00001745   -0.00001745
     atom  191 type  1   force =    -0.00000979   -0.00000141   -0.00000141
     atom  192 type  1   force =    -0.00001126    0.00000155    0.00000155
     atom  193 type  1   force =    -0.00001235    0.00000325    0.00000066
     atom  194 type  1   force =    -0.00001136   -0.00000197   -0.00000160
     atom  195 type  1   force =    -0.00001070   -0.00000109   -0.00001058
     atom  196 type  1   force =    -0.00002286   -0.00002018   -0.00000563
     atom  197 type  1   force =    -0.00000805    0.00000284   -0.00000017
     atom  198 type  1   force =    -0.00001158   -0.00001793    0.00000323
     atom  199 type  1   force =    -0.00001235    0.00000066    0.00000325
     atom  200 type  1   force =    -0.00001136   -0.00000160   -0.00000197
     atom  201 type  1   force =    -0.00001070   -0.00001058   -0.00000109
     atom  202 type  1   force =     0.00000770    0.00000108    0.00000108
     atom  203 type  1   force =    -0.00001348    0.00000099    0.00000099
     atom  204 type  1   force =    -0.00001195    0.00000292    0.00000292
     atom  205 type  1   force =    -0.00001040    0.00000156   -0.00000206
     atom  206 type  1   force =    -0.00000880    0.00000186   -0.00000084
     atom  207 type  1   force =    -0.00000620    0.00000343   -0.00000228
     atom  208 type  1   force =    -0.00002286   -0.00000563   -0.00002018
     atom  209 type  1   force =    -0.00000805   -0.00000017    0.00000284
     atom  210 type  1   force =    -0.00001158    0.00000323   -0.00001793
     atom  211 type  1   force =    -0.00001040   -0.00000206    0.00000156
     atom  212 type  1   force =    -0.00000880   -0.00000084    0.00000186
     atom  213 type  1   force =    -0.00000620   -0.00000228    0.00000343
     atom  214 type  1   force =     0.00102633   -0.00072665   -0.00072665
     atom  215 type  1   force =    -0.00000948   -0.00000058   -0.00000058
     atom  216 type  1   force =    -0.00001875   -0.00000973   -0.00000973

     Total force =     0.005067     Total SCF correction =     0.000748
     SCF correction compared to forces is large: reduce conv_thr to get better values


     Computing stress (Cartesian axis) and pressure

          total   stress  (Ry/bohr**3)                   (kbar)     P=     -349.66
  -0.00237695   0.00000000   0.00000000         -349.66        0.00        0.00
   0.00000000  -0.00237695   0.00000018            0.00     -349.66        0.03
   0.00000000   0.00000018  -0.00237695            0.00        0.03     -349.66


     Writing output data file ./Ge_out/Ge_scf.save/
 
     init_run     :      9.26s CPU     12.21s WALL (       1 calls)
     electrons    :    475.26s CPU    613.33s WALL (       1 calls)
     forces       :      7.95s CPU     11.81s WALL (       1 calls)
     stress       :    197.38s CPU    327.51s WALL (       1 calls)

     Called by init_run:
     wfcinit      :      8.73s CPU     11.58s WALL (       1 calls)
     potinit      :      0.08s CPU      0.10s WALL (       1 calls)
     hinit0       :      0.09s CPU      0.14s WALL (       1 calls)

     Called by electrons:
     c_bands      :    452.23s CPU    589.61s WALL (      16 calls)
     sum_band     :     21.91s CPU     22.24s WALL (      16 calls)
     v_of_rho     :      0.91s CPU      1.17s WALL (      16 calls)
     mix_rho      :      0.21s CPU      0.22s WALL (      16 calls)

     Called by c_bands:
     init_us_2    :      3.01s CPU      3.14s WALL (      33 calls)
     regterg      :    440.66s CPU    577.55s WALL (      16 calls)

     Called by *egterg:
     rdiaghg      :     24.41s CPU     40.31s WALL (      66 calls)
     h_psi        :    195.00s CPU    200.71s WALL (      68 calls)
     g_psi        :      0.72s CPU      0.73s WALL (      51 calls)

     Called by h_psi:
     h_psi:calbec :     63.74s CPU     67.29s WALL (      68 calls)
     vloc_psi     :     79.40s CPU     80.68s WALL (      68 calls)
     add_vuspsi   :     50.05s CPU     50.91s WALL (      68 calls)

     General routines
     calbec       :     72.16s CPU     79.39s WALL (      73 calls)
     fft          :      0.58s CPU      0.73s WALL (     148 calls)
     ffts         :      0.05s CPU      0.05s WALL (      16 calls)
     fftw         :     85.16s CPU     86.56s WALL (   81758 calls)
 
     Parallel routines
 
     PWSCF        :  11m31.91s CPU  16m11.43s WALL

 
   This run was terminated on:   1: 3:19  15May2025            

=------------------------------------------------------------------------------=
   JOB DONE.
=------------------------------------------------------------------------------=
