
     Program PWSCF v.7.2 starts on 26Apr2025 at 19:20:59 

     This program is part of the open-source Quantum ESPRESSO suite
     for quantum simulation of materials; please cite
         "P. Giannozzi et al., J. Phys.:Condens. Matter 21 395502 (2009);
         "P. Giannozzi et al., J. Phys.:Condens. Matter 29 465901 (2017);
         "P. Giannozzi et al., J. Chem. Phys. 152 154105 (2020);
          URL http://www.quantum-espresso.org", 
     in publications or presentations arising from this work. More details at
     http://www.quantum-espresso.org/quote

     Parallel version (MPI), running on     4 processors

     MPI processes distributed on     1 nodes
     200765 MiB available memory on the printing compute node when the environment starts

     Waiting for input...
     Reading input from standard input
Warning: card &CELL ignored
Warning: card / ignored

     Current dimensions of program PWSCF are:
     Max number of different atomic species (ntypx) = 10
     Max number of k-points (npk) =  40000
     Max angular momentum in pseudopotentials (lmaxx) =  4

     gamma-point specific algorithms are used

     R & G space division:  proc/nbgrp/npool/nimage =       4
     Subspace diagonalization in iterative solution of the eigenvalue problem:
     a serial algorithm will be used


     Parallelization info
     --------------------
     sticks:   dense  smooth     PW     G-vecs:    dense   smooth      PW
     Min        2270    2270    562               163162   163162   20327
     Max        2272    2272    564               163172   163172   20330
     Sum        9085    9085   2253               652671   652671   81313

     Using Slab Decomposition



     bravais-lattice index     =            1
     lattice parameter (alat)  =      18.8973  a.u.
     unit-cell volume          =    6748.3345 (a.u.)^3
     number of atoms/cell      =            1
     number of atomic types    =            1
     number of electrons       =        14.00
     number of Kohn-Sham states=           11
     kinetic-energy cutoff     =      80.0000  Ry
     charge density cutoff     =     320.0000  Ry
     scf convergence threshold =      1.0E-06
     mixing beta               =       0.4000
     number of iterations used =            8  plain     mixing
     Exchange-correlation= PBE
                           (   1   4   3   4   0   0   0)

     celldm(1)=  18.897261  celldm(2)=   0.000000  celldm(3)=   0.000000
     celldm(4)=   0.000000  celldm(5)=   0.000000  celldm(6)=   0.000000

     crystal axes: (cart. coord. in units of alat)
               a(1) = (   1.000000   0.000000   0.000000 )  
               a(2) = (   0.000000   1.000000   0.000000 )  
               a(3) = (   0.000000   0.000000   1.000000 )  

     reciprocal axes: (cart. coord. in units 2 pi/alat)
               b(1) = (  1.000000  0.000000  0.000000 )  
               b(2) = (  0.000000  1.000000  0.000000 )  
               b(3) = (  0.000000  0.000000  1.000000 )  


     PseudoPot. # 1 for Ge read from file:
     ./Ge.upf
     MD5 check sum: 087fa14d6c89b52166990835c3b338da
     Pseudo is Norm-conserving + core correction, Zval = 14.0
     Generated using ONCVPSP code by D. R. Hamann
     Using radial grid of 1560 points,  6 beta functions with: 
                l(1) =   0
                l(2) =   0
                l(3) =   1
                l(4) =   1
                l(5) =   2
                l(6) =   2

     atomic species   valence    mass     pseudopotential
        Ge            14.00    72.63000     Ge( 1.00)

     Starting magnetic structure 
     atomic species   magnetization
        Ge           1.000

     48 Sym. Ops., with inversion, found



   Cartesian axes

     site n.     atom                  positions (alat units)
         1           Ge  tau(   1) = (   0.0000000   0.0000000   0.0000000  )

     number of k points=     1  Gaussian smearing, width (Ry)=  0.0100
                       cart. coord. in units 2pi/alat
        k(    1) = (   0.0000000   0.0000000   0.0000000), wk =   1.0000000

     Dense  grid:   326336 G-vectors     FFT dimensions: ( 108, 108, 108)

     Estimated max dynamical RAM per process >     108.68 MB

     Estimated total dynamical RAM >     434.73 MB
     Generating pointlists ...
     new r_m :   0.4125 (alat units)  7.7951 (a.u.) for type    1

     Initial potential from superposition of free atoms

     starting charge      13.9992, renormalised to      14.0000

     negative rho (up, down):  2.500E-05 1.386E-14
     Starting wfcs are    9 randomized atomic wfcs +    2 random wfcs

     total cpu time spent up to now is        3.0 secs

     Self-consistent Calculation

     iteration #  1     ecut=    80.00 Ry     beta= 0.40
     Davidson diagonalization with overlap
     ethr =  1.00E-02,  avg # of iterations =  7.5

     negative rho (up, down):  3.701E-07 0.000E+00

     total cpu time spent up to now is       11.9 secs

     total energy              =    -177.02935484 Ry
     estimated scf accuracy    <       3.91021997 Ry

     total magnetization       =     4.00 Bohr mag/cell
     absolute magnetization    =     4.02 Bohr mag/cell

     iteration #  2     ecut=    80.00 Ry     beta= 0.40
     Davidson diagonalization with overlap
     ethr =  1.00E-02,  avg # of iterations =  1.5

     total cpu time spent up to now is       20.2 secs

     total energy              =    -178.35159926 Ry
     estimated scf accuracy    <       1.46487399 Ry

     total magnetization       =     2.00 Bohr mag/cell
     absolute magnetization    =     2.01 Bohr mag/cell

     iteration #  3     ecut=    80.00 Ry     beta= 0.40
     Davidson diagonalization with overlap
     ethr =  1.00E-02,  avg # of iterations =  1.5

     total cpu time spent up to now is       22.9 secs

     total energy              =    -178.37190709 Ry
     estimated scf accuracy    <       0.00714623 Ry

     total magnetization       =     2.00 Bohr mag/cell
     absolute magnetization    =     2.01 Bohr mag/cell

     iteration #  4     ecut=    80.00 Ry     beta= 0.40
     Davidson diagonalization with overlap
     ethr =  5.10E-05,  avg # of iterations =  8.5

     total cpu time spent up to now is       31.9 secs

     total energy              =    -178.37225853 Ry
     estimated scf accuracy    <       0.00243417 Ry

     total magnetization       =     2.00 Bohr mag/cell
     absolute magnetization    =     2.01 Bohr mag/cell

     iteration #  5     ecut=    80.00 Ry     beta= 0.40
     Davidson diagonalization with overlap
     ethr =  1.74E-05,  avg # of iterations =  3.0

     total cpu time spent up to now is       35.1 secs

     total energy              =    -178.37278584 Ry
     estimated scf accuracy    <       0.00014483 Ry

     total magnetization       =     2.00 Bohr mag/cell
     absolute magnetization    =     2.01 Bohr mag/cell

     iteration #  6     ecut=    80.00 Ry     beta= 0.40
     Davidson diagonalization with overlap
     ethr =  1.03E-06,  avg # of iterations =  2.5

     total cpu time spent up to now is       38.3 secs

     total energy              =    -178.37283033 Ry
     estimated scf accuracy    <       0.00001004 Ry

     total magnetization       =     2.00 Bohr mag/cell
     absolute magnetization    =     2.01 Bohr mag/cell

     iteration #  7     ecut=    80.00 Ry     beta= 0.40
     Davidson diagonalization with overlap
     ethr =  7.17E-08,  avg # of iterations =  1.5

     negative rho (up, down):  1.472E-11 8.621E-07

     total cpu time spent up to now is       52.1 secs

     total energy              =    -178.37283108 Ry
     estimated scf accuracy    <       0.00000433 Ry

     total magnetization       =     2.00 Bohr mag/cell
     absolute magnetization    =     2.01 Bohr mag/cell

     iteration #  8     ecut=    80.00 Ry     beta= 0.40
     Davidson diagonalization with overlap
     ethr =  3.09E-08,  avg # of iterations =  3.0

     Magnetic moment per site  (integrated on atomic sphere of radius R)
     atom   1 (R=0.413)  charge= 13.9977  magn=  1.9977

     total cpu time spent up to now is       55.0 secs

     End of self-consistent calculation

 ------ SPIN UP ------------


          k = 0.0000 0.0000 0.0000 ( 40657 PWs)   bands (ev):

   -28.8556 -28.8556 -28.8555 -28.8554 -28.8554 -11.8701  -4.0669  -4.0669
    -4.0668  -0.5915   0.8387

 ------ SPIN DOWN ----------


          k = 0.0000 0.0000 0.0000 ( 40657 PWs)   bands (ev):

   -28.6682 -28.6682 -28.6680 -28.6680 -28.6679 -10.4623  -2.5694  -2.5692
    -2.5687   0.0145   1.4231

     the Fermi energy is    -4.0254 ev

!    total energy              =    -178.37283191 Ry
     estimated scf accuracy    <       0.00000019 Ry
     smearing contrib. (-TS)   =      -0.00771312 Ry
     internal energy E=F+TS    =    -178.36511879 Ry

     The total energy is F=E-TS. E is the sum of the following terms:
     one-electron contribution =    -216.50300853 Ry
     hartree contribution      =     110.92483011 Ry
     xc contribution           =     -43.35885029 Ry
     ewald contribution        =     -29.42809007 Ry

     total magnetization       =     2.00 Bohr mag/cell
     absolute magnetization    =     2.01 Bohr mag/cell

     convergence has been achieved in   8 iterations

     Writing all to output data dir ./Ge_out/Ge_0.save/

     init_run     :      2.45s CPU      2.67s WALL (       1 calls)
     electrons    :     23.84s CPU     52.13s WALL (       1 calls)

     Called by init_run:
     wfcinit      :      0.54s CPU      0.57s WALL (       1 calls)
     potinit      :      1.03s CPU      1.15s WALL (       1 calls)
     hinit0       :      0.72s CPU      0.75s WALL (       1 calls)

     Called by electrons:
     c_bands      :     12.13s CPU     23.43s WALL (       8 calls)
     sum_band     :      2.95s CPU      3.13s WALL (       8 calls)
     v_of_rho     :      8.17s CPU     19.65s WALL (       9 calls)
     mix_rho      :      1.15s CPU      1.28s WALL (       8 calls)

     Called by c_bands:
     init_us_2    :      0.22s CPU      0.25s WALL (      34 calls)
     init_us_2:cp :      0.22s CPU      0.23s WALL (      34 calls)
     regterg      :     11.63s CPU     17.68s WALL (      16 calls)

     Called by *egterg:
     rdiaghg      :      0.02s CPU      0.02s WALL (      74 calls)
     h_psi        :     11.19s CPU     17.22s WALL (      76 calls)
     g_psi        :      0.05s CPU      0.05s WALL (      58 calls)

     Called by h_psi:
     h_psi:calbec :      0.19s CPU      0.21s WALL (      76 calls)
     vloc_psi     :     10.81s CPU     16.79s WALL (      76 calls)
     add_vuspsi   :      0.13s CPU      0.13s WALL (      76 calls)

     General routines
     calbec       :      0.19s CPU      0.20s WALL (      76 calls)
     fft          :      3.81s CPU      4.11s WALL (     117 calls)
     ffts         :      0.27s CPU      0.28s WALL (       8 calls)
     fftw         :     10.58s CPU     16.57s WALL (     654 calls)

     Parallel routines

     PWSCF        :     26.44s CPU     55.44s WALL


   This run was terminated on:  19:21:54  26Apr2025            

=------------------------------------------------------------------------------=
   JOB DONE.
=------------------------------------------------------------------------------=
