
     Program PWSCF v.7.2 starts on 26Apr2025 at  8:57:21 

     This program is part of the open-source Quantum ESPRESSO suite
     for quantum simulation of materials; please cite
         "P. Giannozzi et al., J. Phys.:Condens. Matter 21 395502 (2009);
         "P. Giannozzi et al., J. Phys.:Condens. Matter 29 465901 (2017);
         "P. Giannozzi et al., J. Chem. Phys. 152 154105 (2020);
          URL http://www.quantum-espresso.org", 
     in publications or presentations arising from this work. More details at
     http://www.quantum-espresso.org/quote

     Parallel version (MPI), running on     4 processors

     MPI processes distributed on     1 nodes
     200859 MiB available memory on the printing compute node when the environment starts

     Waiting for input...
     Reading input from standard input

     Current dimensions of program PWSCF are:
     Max number of different atomic species (ntypx) = 10
     Max number of k-points (npk) =  40000
     Max angular momentum in pseudopotentials (lmaxx) =  4

     R & G space division:  proc/nbgrp/npool/nimage =       4
     Subspace diagonalization in iterative solution of the eigenvalue problem:
     a serial algorithm will be used


     Parallelization info
     --------------------
     sticks:   dense  smooth     PW     G-vecs:    dense   smooth      PW
     Min         333     333     94                 7969     7969    1255
     Max         334     334     95                 7971     7971    1258
     Sum        1333    1333    379                31879    31879    5029

     Using Slab Decomposition



     bravais-lattice index     =            2
     lattice parameter (alat)  =      10.9604  a.u.
     unit-cell volume          =     329.1703 (a.u.)^3
     number of atoms/cell      =            2
     number of atomic types    =            1
     number of electrons       =        28.00
     number of Kohn-Sham states=           18
     kinetic-energy cutoff     =      80.0000  Ry
     charge density cutoff     =     320.0000  Ry
     scf convergence threshold =      1.0E-06
     mixing beta               =       0.4000
     number of iterations used =            8  plain     mixing
     energy convergence thresh.=      1.0E-04
     force convergence thresh. =      1.0E-03
     press convergence thresh. =      5.0E-01
     Exchange-correlation= PBE
                           (   1   4   3   4   0   0   0)
     nstep                     =           50


     celldm(1)=  10.960412  celldm(2)=   0.000000  celldm(3)=   0.000000
     celldm(4)=   0.000000  celldm(5)=   0.000000  celldm(6)=   0.000000

     crystal axes: (cart. coord. in units of alat)
               a(1) = (  -0.500000   0.000000   0.500000 )  
               a(2) = (   0.000000   0.500000   0.500000 )  
               a(3) = (  -0.500000   0.500000   0.000000 )  

     reciprocal axes: (cart. coord. in units 2 pi/alat)
               b(1) = ( -1.000000 -1.000000  1.000000 )  
               b(2) = (  1.000000  1.000000  1.000000 )  
               b(3) = ( -1.000000  1.000000 -1.000000 )  


     PseudoPot. # 1 for Ge read from file:
     ./Ge.upf
     MD5 check sum: 087fa14d6c89b52166990835c3b338da
     Pseudo is Norm-conserving + core correction, Zval = 14.0
     Generated using ONCVPSP code by D. R. Hamann
     Using radial grid of 1560 points,  6 beta functions with: 
                l(1) =   0
                l(2) =   0
                l(3) =   1
                l(4) =   1
                l(5) =   2
                l(6) =   2

     atomic species   valence    mass     pseudopotential
        Ge            14.00    72.63000     Ge( 1.00)

     48 Sym. Ops., with inversion, found (24 have fractional translation)



   Cartesian axes

     site n.     atom                  positions (alat units)
         1           Ge  tau(   1) = (   0.0000000   0.0000000   0.0000000  )
         2           Ge  tau(   2) = (   0.2500000   0.2500000   0.2500000  )

     number of k points=    29  Gaussian smearing, width (Ry)=  0.0100
                       cart. coord. in units 2pi/alat
        k(    1) = (   0.0000000   0.0000000   0.0000000), wk =   0.0039062
        k(    2) = (  -0.1250000   0.1250000  -0.1250000), wk =   0.0312500
        k(    3) = (  -0.2500000   0.2500000  -0.2500000), wk =   0.0312500
        k(    4) = (  -0.3750000   0.3750000  -0.3750000), wk =   0.0312500
        k(    5) = (   0.5000000  -0.5000000   0.5000000), wk =   0.0156250
        k(    6) = (   0.0000000   0.2500000   0.0000000), wk =   0.0234375
        k(    7) = (  -0.1250000   0.3750000  -0.1250000), wk =   0.0937500
        k(    8) = (  -0.2500000   0.5000000  -0.2500000), wk =   0.0937500
        k(    9) = (   0.6250000  -0.3750000   0.6250000), wk =   0.0937500
        k(   10) = (   0.5000000  -0.2500000   0.5000000), wk =   0.0937500
        k(   11) = (   0.3750000  -0.1250000   0.3750000), wk =   0.0937500
        k(   12) = (   0.2500000   0.0000000   0.2500000), wk =   0.0468750
        k(   13) = (   0.0000000   0.5000000   0.0000000), wk =   0.0234375
        k(   14) = (  -0.1250000   0.6250000  -0.1250000), wk =   0.0937500
        k(   15) = (   0.7500000  -0.2500000   0.7500000), wk =   0.0937500
        k(   16) = (   0.6250000  -0.1250000   0.6250000), wk =   0.0937500
        k(   17) = (   0.5000000   0.0000000   0.5000000), wk =   0.0468750
        k(   18) = (   0.0000000   0.7500000   0.0000000), wk =   0.0234375
        k(   19) = (   0.8750000  -0.1250000   0.8750000), wk =   0.0937500
        k(   20) = (   0.7500000   0.0000000   0.7500000), wk =   0.0468750
        k(   21) = (   0.0000000  -1.0000000   0.0000000), wk =   0.0117188
        k(   22) = (  -0.2500000   0.5000000   0.0000000), wk =   0.0937500
        k(   23) = (   0.6250000  -0.3750000   0.8750000), wk =   0.1875000
        k(   24) = (   0.5000000  -0.2500000   0.7500000), wk =   0.0937500
        k(   25) = (   0.7500000  -0.2500000   1.0000000), wk =   0.0937500
        k(   26) = (   0.6250000  -0.1250000   0.8750000), wk =   0.1875000
        k(   27) = (   0.5000000   0.0000000   0.7500000), wk =   0.0937500
        k(   28) = (  -0.2500000  -1.0000000   0.0000000), wk =   0.0468750
        k(   29) = (  -0.5000000  -1.0000000   0.0000000), wk =   0.0234375

     Dense  grid:    31879 G-vectors     FFT dimensions: (  48,  48,  48)

     Estimated max dynamical RAM per process >      17.98 MB

     Estimated total dynamical RAM >      71.93 MB

     Initial potential from superposition of free atoms

     starting charge      27.9984, renormalised to      28.0000
     Starting wfcs are   18 randomized atomic wfcs

     total cpu time spent up to now is        2.9 secs

     Self-consistent Calculation

     iteration #  1     ecut=    80.00 Ry     beta= 0.40
     Davidson diagonalization with overlap
     ethr =  1.00E-02,  avg # of iterations =  3.7

     Threshold (ethr) on eigenvalues was too large:
     Diagonalizing with lowered threshold

     Davidson diagonalization with overlap
     ethr =  9.99E-05,  avg # of iterations =  3.9

     total cpu time spent up to now is       11.5 secs

     total energy              =    -357.28526038 Ry
     estimated scf accuracy    <       0.03026339 Ry

     iteration #  2     ecut=    80.00 Ry     beta= 0.40
     Davidson diagonalization with overlap
     ethr =  1.08E-04,  avg # of iterations =  1.0

     total cpu time spent up to now is       14.7 secs

     total energy              =    -357.28418427 Ry
     estimated scf accuracy    <       0.00942667 Ry

     iteration #  3     ecut=    80.00 Ry     beta= 0.40
     Davidson diagonalization with overlap
     ethr =  3.37E-05,  avg # of iterations =  1.2

     total cpu time spent up to now is       17.8 secs

     total energy              =    -357.28465128 Ry
     estimated scf accuracy    <       0.00010730 Ry

     iteration #  4     ecut=    80.00 Ry     beta= 0.40
     Davidson diagonalization with overlap
     ethr =  3.83E-07,  avg # of iterations =  3.0

     total cpu time spent up to now is       22.2 secs

     total energy              =    -357.28467344 Ry
     estimated scf accuracy    <       0.00000890 Ry

     iteration #  5     ecut=    80.00 Ry     beta= 0.40
     Davidson diagonalization with overlap
     ethr =  3.18E-08,  avg # of iterations =  1.7

     total cpu time spent up to now is       25.5 secs

     End of self-consistent calculation

          k = 0.0000 0.0000 0.0000 (  3943 PWs)   bands (ev):

   -16.2238 -16.2238 -16.2238 -16.1950 -16.1950 -16.0203 -16.0203 -16.0203
   -16.0144 -16.0144  -3.6946   7.9034   8.5324   8.5324   8.5324  11.0502
    11.0502  11.0502

          k =-0.1250 0.1250-0.1250 (  3945 PWs)   bands (ev):

   -16.2305 -16.2305 -16.2217 -16.1858 -16.1858 -16.0323 -16.0323 -16.0227
   -16.0039 -16.0039  -3.5177   6.0454   8.2298   8.2298   9.2566  11.4605
    11.4605  11.8083

          k =-0.2500 0.2500-0.2500 (  3966 PWs)   bands (ev):

   -16.2388 -16.2388 -16.2165 -16.1718 -16.1718 -16.0445 -16.0445 -16.0285
   -15.9947 -15.9947  -3.0061   3.8883   7.7259   7.7259   8.9636  12.0649
    12.0649  13.7534

          k =-0.3750 0.3750-0.3750 (  3954 PWs)   bands (ev):

   -16.2431 -16.2431 -16.2111 -16.1631 -16.1631 -16.0512 -16.0512 -16.0346
   -15.9897 -15.9897  -2.2646   2.0946   7.3652   7.3652   8.6232  12.2446
    12.2446  15.6180

          k = 0.5000-0.5000 0.5000 (  3996 PWs)   bands (ev):

   -16.2442 -16.2442 -16.2088 -16.1606 -16.1606 -16.0529 -16.0529 -16.0372
   -15.9883 -15.9883  -1.7823   1.2533   7.2392   7.2392   8.4985  12.2294
    12.2294  15.6234

          k = 0.0000 0.2500 0.0000 (  3947 PWs)   bands (ev):

   -16.2297 -16.2286 -16.2286 -16.1878 -16.1758 -16.0498 -16.0210 -16.0133
   -16.0133 -16.0006  -3.4576   5.9438   7.7439   7.7439  10.3519  10.4436
    12.1391  12.1391

          k =-0.1250 0.3750-0.1250 (  3965 PWs)   bands (ev):

   -16.2411 -16.2354 -16.2211 -16.1764 -16.1595 -16.0666 -16.0340 -16.0168
   -16.0018 -15.9920  -3.0528   4.3328   7.1217   7.2247  10.3054  10.9363
    12.9196  13.2065

          k =-0.2500 0.5000-0.2500 (  3984 PWs)   bands (ev):

   -16.2502 -16.2418 -16.2087 -16.1640 -16.1495 -16.0741 -16.0469 -16.0301
   -15.9923 -15.9826  -2.3640   2.5564   6.4724   6.9288   9.9624  11.7268
    13.1260  13.9986

          k = 0.6250-0.3750 0.6250 (  3979 PWs)   bands (ev):

   -16.2540 -16.2460 -16.1984 -16.1544 -16.1511 -16.0682 -16.0577 -16.0429
   -15.9861 -15.9784  -1.6877   1.3438   6.0449   6.9215   9.7321  12.0230
    12.8983  15.4743

          k = 0.5000-0.2500 0.5000 (  3967 PWs)   bands (ev):

   -16.2520 -16.2480 -16.1970 -16.1599 -16.1499 -16.0646 -16.0532 -16.0486
   -15.9835 -15.9813  -1.8717   1.6409   5.9246   7.1945   9.7297  12.2565
    12.6154  15.5827

          k = 0.3750-0.1250 0.3750 (  3971 PWs)   bands (ev):

   -16.2462 -16.2446 -16.2065 -16.1695 -16.1554 -16.0620 -16.0485 -16.0323
   -15.9913 -15.9854  -2.6214   3.1223   6.1763   7.6797   9.9155  12.2068
    12.3735  13.9624

          k = 0.2500 0.0000 0.2500 (  3973 PWs)   bands (ev):

   -16.2396 -16.2340 -16.2184 -16.1798 -16.1705 -16.0491 -16.0402 -16.0162
   -16.0060 -15.9924  -3.2271   4.8421   6.9529   8.1783   9.9349  11.5852
    11.6888  13.0590

          k = 0.0000 0.5000 0.0000 (  3976 PWs)   bands (ev):

   -16.2391 -16.2391 -16.2283 -16.1675 -16.1386 -16.0924 -16.0398 -16.0024
   -15.9975 -15.9975  -2.7551   3.7802   6.6725   6.6725   9.6079  11.0726
    14.0790  14.0790

          k =-0.1250 0.6250-0.1250 (  3986 PWs)   bands (ev):

   -16.2509 -16.2447 -16.2127 -16.1533 -16.1222 -16.1092 -16.0542 -16.0207
   -15.9887 -15.9819  -2.1450   2.5325   5.9144   6.3466   9.8368  11.1019
    14.0433  14.6915

          k = 0.7500-0.2500 0.7500 (  3983 PWs)   bands (ev):

   -16.2613 -16.2493 -16.1923 -16.1392 -16.1224 -16.1067 -16.0699 -16.0426
   -15.9818 -15.9703  -1.3859   1.3408   5.1058   6.3303   9.9408  12.4999
    13.7989  14.5027

          k = 0.6250-0.1250 0.6250 (  3979 PWs)   bands (ev):

   -16.2640 -16.2519 -16.1820 -16.1369 -16.1301 -16.0888 -16.0818 -16.0538
   -15.9785 -15.9678  -1.2433   1.1536   4.7210   6.6238  10.0941  13.2872
    13.9872  14.9707

          k = 0.5000 0.0000 0.5000 (  3955 PWs)   bands (ev):

   -16.2574 -16.2512 -16.1874 -16.1588 -16.1370 -16.0781 -16.0597 -16.0528
   -15.9796 -15.9760  -1.9514   2.1340   4.9939   7.1518  10.3358  13.1501
    13.3866  13.6168

          k = 0.0000 0.7500 0.0000 (  3988 PWs)   bands (ev):

   -16.2486 -16.2486 -16.2115 -16.1384 -16.1375 -16.0960 -16.0684 -16.0217
   -15.9827 -15.9827  -1.6143   1.7425   5.9570   5.9570   9.1994  10.1245
    16.1328  16.1329

          k = 0.8750-0.1250 0.8750 (  3990 PWs)   bands (ev):

   -16.2575 -16.2515 -16.1903 -16.1515 -16.1209 -16.0855 -16.0822 -16.0438
   -15.9781 -15.9728  -0.8488   0.7716   5.2736   5.8746   9.4996  10.4726
    15.9649  16.4024

          k = 0.7500 0.0000 0.7500 (  3995 PWs)   bands (ev):

   -16.2657 -16.2530 -16.1786 -16.1310 -16.1120 -16.0998 -16.0966 -16.0556
   -15.9766 -15.9650  -0.5450   0.4696   4.5739   6.1163   9.7253  12.4602
    15.3033  15.5493

          k = 0.0000-1.0000 0.0000 (  3984 PWs)   bands (ev):

   -16.2523 -16.2523 -16.1802 -16.1802 -16.1027 -16.1027 -16.0549 -16.0549
   -15.9768 -15.9768  -0.0880  -0.0880   5.7104   5.7104   9.3678   9.3678
    17.4398  17.4398

          k =-0.2500 0.5000 0.0000 (  3978 PWs)   bands (ev):

   -16.2473 -16.2455 -16.2098 -16.1657 -16.1423 -16.0843 -16.0445 -16.0265
   -15.9901 -15.9850  -2.5476   3.2047   5.9233   7.0468  10.8605  11.0113
    13.1413  13.8091

          k = 0.6250-0.3750 0.8750 (  3980 PWs)   bands (ev):

   -16.2572 -16.2508 -16.1918 -16.1534 -16.1320 -16.0917 -16.0580 -16.0462
   -15.9811 -15.9752  -1.8054   1.8728   5.2686   6.6145  10.7799  11.8520
    13.3173  14.4199

          k = 0.5000-0.2500 0.7500 (  3974 PWs)   bands (ev):

   -16.2615 -16.2519 -16.1836 -16.1442 -16.1332 -16.0876 -16.0712 -16.0531
   -15.9791 -15.9703  -1.3021   1.1302   5.0861   6.4210  10.7005  11.9300
    14.0522  15.1330

          k = 0.7500-0.2500 1.0000 (  3979 PWs)   bands (ev):

   -16.2552 -16.2544 -16.1940 -16.1383 -16.1263 -16.1049 -16.0698 -16.0397
   -15.9768 -15.9763  -1.4606   1.5500   5.3251   5.8903  10.4136  10.9866
    13.8937  15.9997

          k = 0.6250-0.1250 0.8750 (  3987 PWs)   bands (ev):

   -16.2642 -16.2566 -16.1728 -16.1284 -16.1225 -16.1022 -16.0871 -16.0600
   -15.9737 -15.9666  -0.7525   0.7114   4.7475   5.7152  10.7680  12.5412
    13.4824  15.2490

          k = 0.5000 0.0000 0.7500 (  3987 PWs)   bands (ev):

   -16.2646 -16.2561 -16.1735 -16.1344 -16.1133 -16.1091 -16.0831 -16.0597
   -15.9744 -15.9668  -1.0546   1.0507   4.6104   6.0439  11.0621  12.8648
    13.3501  14.9569

          k =-0.2500-1.0000 0.0000 (  3982 PWs)   bands (ev):

   -16.2583 -16.2583 -16.1650 -16.1650 -16.1039 -16.1039 -16.0680 -16.0680
   -15.9716 -15.9716  -0.0502  -0.0502   5.2955   5.2955  10.4634  10.4634
    15.7376  15.7376

          k =-0.5000-1.0000 0.0000 (  3996 PWs)   bands (ev):

   -16.2631 -16.2631 -16.1463 -16.1463 -16.1081 -16.1081 -16.0819 -16.0819
   -15.9673 -15.9673  -0.0108  -0.0108   4.9698   4.9698  12.5588  12.5588
    13.1948  13.1948

     the Fermi energy is     8.4529 ev

!    total energy              =    -357.28467357 Ry
     estimated scf accuracy    <       0.00000087 Ry
     smearing contrib. (-TS)   =      -0.00009551 Ry
     internal energy E=F+TS    =    -357.28457806 Ry

     The total energy is F=E-TS. E is the sum of the following terms:
     one-electron contribution =    -191.06005737 Ry
     hartree contribution      =     113.67863476 Ry
     xc contribution           =     -87.24388998 Ry
     ewald contribution        =    -192.65926548 Ry

     convergence has been achieved in   5 iterations

     Forces acting on atoms (cartesian axes, Ry/au):

     atom    1 type  1   force =    -0.00000000   -0.00000000   -0.00000000
     atom    2 type  1   force =     0.00000000    0.00000000    0.00000000
     The non-local contrib.  to forces
     atom    1 type  1   force =     0.00000000   -0.00000000   -0.00000000
     atom    2 type  1   force =    -0.00000000    0.00000000    0.00000000
     The ionic contribution  to forces
     atom    1 type  1   force =     0.00000000    0.00000000    0.00000000
     atom    2 type  1   force =    -0.00000000   -0.00000000   -0.00000000
     The local contribution  to forces
     atom    1 type  1   force =    -0.00000000    0.00000000    0.00000000
     atom    2 type  1   force =     0.00000000   -0.00000000   -0.00000000
     The core correction contribution to forces
     atom    1 type  1   force =    -0.00000000    0.00000000    0.00000000
     atom    2 type  1   force =     0.00000000   -0.00000000    0.00000000
     The Hubbard contrib.    to forces
     atom    1 type  1   force =     0.00000000    0.00000000    0.00000000
     atom    2 type  1   force =     0.00000000    0.00000000    0.00000000
     The SCF correction term to forces
     atom    1 type  1   force =    -0.00000000    0.00000000    0.00000000
     atom    2 type  1   force =     0.00000000    0.00000000   -0.00000000

     Total force =     0.000000     Total SCF correction =     0.000000


     Computing stress (Cartesian axis) and pressure

          total   stress  (Ry/bohr**3)                   (kbar)     P=      -13.98
  -0.00009503  -0.00000000  -0.00000000          -13.98       -0.00       -0.00
  -0.00000000  -0.00009503   0.00000000           -0.00      -13.98        0.00
  -0.00000000   0.00000000  -0.00009503           -0.00        0.00      -13.98


     BFGS Geometry Optimization
     Energy error            =      0.0E+00 Ry
     Gradient error          =      5.3E-31 Ry/Bohr
     Cell gradient error     =      1.4E+01 kbar

     number of scf cycles    =   1
     number of bfgs steps    =   0

     enthalpy           new  =    -357.2846735721 Ry

     new trust radius        =       0.0086207844 bohr
     new conv_thr            =       0.0000010000 Ry

     new unit-cell volume =    326.82972 a.u.^3 (    48.43117 Ang^3 )
     density =      4.98047 g/cm^3

CELL_PARAMETERS (alat= 10.96041152)
  -0.498812109   0.000000000   0.498812109
  -0.000000000   0.498812109   0.498812109
  -0.498812109   0.498812109   0.000000000

ATOMIC_POSITIONS (alat)
Ge           -0.0000000000       -0.0000000000       -0.0000000000
Ge            0.2494060546        0.2494060546        0.2494060546



     Writing config-only to output data dir ./Ge_out/Ge_scf.save/
     NEW-OLD atomic charge density approx. for the potential
     extrapolated charge   27.79949, renormalised to   28.00000

     total cpu time spent up to now is       30.8 secs

     Self-consistent Calculation

     iteration #  1     ecut=    80.00 Ry     beta= 0.40
     Davidson diagonalization with overlap
     ethr =  1.00E-06,  avg # of iterations =  4.9

     total cpu time spent up to now is       36.9 secs

     total energy              =    -357.27928348 Ry
     estimated scf accuracy    <       0.00301617 Ry

     iteration #  2     ecut=    80.00 Ry     beta= 0.40
     Davidson diagonalization with overlap
     ethr =  1.08E-05,  avg # of iterations =  3.7

     total cpu time spent up to now is       42.1 secs

     total energy              =    -357.28501623 Ry
     estimated scf accuracy    <       0.00107673 Ry

     iteration #  3     ecut=    80.00 Ry     beta= 0.40
     Davidson diagonalization with overlap
     ethr =  3.85E-06,  avg # of iterations =  1.1

     total cpu time spent up to now is       45.2 secs

     total energy              =    -357.28488287 Ry
     estimated scf accuracy    <       0.00047531 Ry

     iteration #  4     ecut=    80.00 Ry     beta= 0.40
     Davidson diagonalization with overlap
     ethr =  1.70E-06,  avg # of iterations =  1.0

     total cpu time spent up to now is       48.3 secs

     total energy              =    -357.28487659 Ry
     estimated scf accuracy    <       0.00018685 Ry

     iteration #  5     ecut=    80.00 Ry     beta= 0.40
     Davidson diagonalization with overlap
     ethr =  6.67E-07,  avg # of iterations =  1.0

     total cpu time spent up to now is       51.4 secs

     total energy              =    -357.28477337 Ry
     estimated scf accuracy    <       0.00014441 Ry

     iteration #  6     ecut=    80.00 Ry     beta= 0.40
     Davidson diagonalization with overlap
     ethr =  5.16E-07,  avg # of iterations =  2.0

     total cpu time spent up to now is       55.5 secs

     End of self-consistent calculation

          k = 0.0000 0.0000 0.0000 (  3943 PWs)   bands (ev):

   -16.1480 -16.1480 -16.1480 -16.1187 -16.1187 -15.9409 -15.9409 -15.9409
   -15.9345 -15.9345  -3.6510   8.0572   8.6262   8.6262   8.6262  11.1479
    11.1479  11.1479

          k =-0.1253 0.1253-0.1253 (  3945 PWs)   bands (ev):

   -16.1548 -16.1548 -16.1458 -16.1093 -16.1093 -15.9529 -15.9529 -15.9433
   -15.9240 -15.9240  -3.4729   6.1539   8.3208   8.3208   9.3780  11.5616
    11.5616  11.9212

          k =-0.2506 0.2506-0.2506 (  3966 PWs)   bands (ev):

   -16.1633 -16.1633 -16.1406 -16.0951 -16.0951 -15.9653 -15.9653 -15.9493
   -15.9146 -15.9146  -2.9576   3.9768   7.8129   7.8129   9.0793  12.1687
    12.1687  13.8860

          k =-0.3759 0.3759-0.3759 (  3954 PWs)   bands (ev):

   -16.1676 -16.1676 -16.1351 -16.0862 -16.0862 -15.9720 -15.9720 -15.9555
   -15.9096 -15.9096  -2.2100   2.1682   7.4497   7.4497   8.7371  12.3456
    12.3456  15.7369

          k = 0.5012-0.5012 0.5012 (  3996 PWs)   bands (ev):

   -16.1687 -16.1687 -16.1328 -16.0837 -16.0837 -15.9738 -15.9738 -15.9581
   -15.9082 -15.9082  -1.7228   1.3190   7.3230   7.3230   8.6120  12.3285
    12.3285  15.7271

          k = 0.0000 0.2506 0.0000 (  3947 PWs)   bands (ev):

   -16.1541 -16.1529 -16.1529 -16.1114 -16.0991 -15.9708 -15.9412 -15.9338
   -15.9338 -15.9206  -3.4124   6.0575   7.8300   7.8300  10.4833  10.5380
    12.2464  12.2464

          k =-0.1253 0.3759-0.1253 (  3965 PWs)   bands (ev):

   -16.1657 -16.1598 -16.1453 -16.0998 -16.0825 -15.9880 -15.9545 -15.9372
   -15.9220 -15.9119  -3.0047   4.4298   7.2060   7.3069  10.4159  11.0477
    13.0315  13.3196

          k =-0.2506 0.5012-0.2506 (  3984 PWs)   bands (ev):

   -16.1748 -16.1663 -16.1327 -16.0871 -16.0723 -15.9956 -15.9677 -15.9508
   -15.9123 -15.9023  -2.3106   2.6370   6.5540   7.0092  10.0752  11.8317
    13.2350  14.1093

          k = 0.6265-0.3759 0.6265 (  3979 PWs)   bands (ev):

   -16.1787 -16.1706 -16.1222 -16.0773 -16.0740 -15.9895 -15.9787 -15.9638
   -15.9060 -15.8981  -1.6279   1.4130   6.1239   7.0022   9.8448  12.1230
    13.0029  15.5947

          k = 0.5012-0.2506 0.5012 (  3967 PWs)   bands (ev):

   -16.1767 -16.1726 -16.1208 -16.0830 -16.0727 -15.9858 -15.9741 -15.9696
   -15.9033 -15.9011  -1.8138   1.7130   6.0016   7.2777   9.8438  12.3569
    12.7188  15.7109

          k = 0.3759-0.1253 0.3759 (  3971 PWs)   bands (ev):

   -16.1709 -16.1691 -16.1304 -16.0927 -16.0783 -15.9831 -15.9695 -15.9529
   -15.9112 -15.9052  -2.5701   3.2080   6.2525   7.7668  10.0329  12.3106
    12.4803  14.0838

          k = 0.2506 0.0000 0.2506 (  3973 PWs)   bands (ev):

   -16.1641 -16.1584 -16.1425 -16.1032 -16.0937 -15.9701 -15.9611 -15.9365
   -15.9263 -15.9123  -3.1802   4.9427   7.0324   8.2695  10.0577  11.6862
    11.7954  13.1776

          k = 0.0000 0.5012 0.0000 (  3976 PWs)   bands (ev):

   -16.1636 -16.1636 -16.1527 -16.0907 -16.0612 -16.0143 -15.9605 -15.9224
   -15.9176 -15.9176  -2.7050   3.8778   6.7504   6.7504   9.6977  11.1881
    14.2002  14.2002

          k =-0.1253 0.6265-0.1253 (  3986 PWs)   bands (ev):

   -16.1756 -16.1693 -16.1368 -16.0762 -16.0445 -16.0314 -15.9751 -15.9412
   -15.9086 -15.9017  -2.0904   2.6198   5.9870   6.4223   9.9295  11.2103
    14.1609  14.8141

          k = 0.7518-0.2506 0.7518 (  3983 PWs)   bands (ev):

   -16.1862 -16.1739 -16.1160 -16.0619 -16.0447 -16.0288 -15.9911 -15.9634
   -15.9015 -15.8899  -1.3249   1.4173   5.1729   6.4062  10.0372  12.6190
    13.9096  14.6202

          k = 0.6265-0.1253 0.6265 (  3979 PWs)   bands (ev):

   -16.1889 -16.1766 -16.1055 -16.0595 -16.0525 -16.0105 -16.0033 -15.9748
   -15.8981 -15.8873  -1.1806   1.2280   4.7847   6.7020  10.1953  13.4079
    14.1017  15.0993

          k = 0.5012 0.0000 0.5012 (  3955 PWs)   bands (ev):

   -16.1822 -16.1759 -16.1109 -16.0818 -16.0596 -15.9996 -15.9810 -15.9737
   -15.8993 -15.8957  -1.8949   2.2163   5.0586   7.2345  10.4459  13.2609
    13.5064  13.7326

          k = 0.0000 0.7518 0.0000 (  3988 PWs)   bands (ev):

   -16.1732 -16.1732 -16.1356 -16.0611 -16.0601 -16.0178 -15.9896 -15.9421
   -15.9025 -15.9025  -1.5561   1.8253   6.0298   6.0298   9.2867  10.2187
    16.2690  16.2690

          k = 0.8771-0.1253 0.8771 (  3990 PWs)   bands (ev):

   -16.1823 -16.1762 -16.1140 -16.0745 -16.0431 -16.0070 -16.0038 -15.9646
   -15.8978 -15.8923  -0.7847   0.8473   5.3403   5.9470   9.5890  10.5691
    16.1027  16.5382

          k = 0.7518 0.0000 0.7518 (  3995 PWs)   bands (ev):

   -16.1907 -16.1776 -16.1021 -16.0535 -16.0341 -16.0217 -16.0184 -15.9767
   -15.8962 -15.8844  -0.4772   0.5421   4.6342   6.1905   9.8179  12.5707
    15.4391  15.6778

          k = 0.0000-1.0024 0.0000 (  3984 PWs)   bands (ev):

   -16.1769 -16.1769 -16.1038 -16.1038 -16.0245 -16.0245 -15.9759 -15.9759
   -15.8965 -15.8965  -0.0187  -0.0187   5.7816   5.7816   9.4557   9.4557
    17.5900  17.5900

          k =-0.2506 0.5012 0.0000 (  3978 PWs)   bands (ev):

   -16.1719 -16.1701 -16.1337 -16.0888 -16.0650 -16.0060 -15.9653 -15.9471
   -15.9101 -15.9047  -2.4959   3.2954   5.9952   7.1289  10.9592  11.1356
    13.2419  13.9283

          k = 0.6265-0.3759 0.8771 (  3980 PWs)   bands (ev):

   -16.1820 -16.1754 -16.1154 -16.0763 -16.0545 -16.0135 -15.9790 -15.9672
   -15.9008 -15.8948  -1.7477   1.9523   5.3374   6.6923  10.8947  11.9564
    13.4243  14.5393

          k = 0.5012-0.2506 0.7518 (  3974 PWs)   bands (ev):

   -16.1863 -16.1766 -16.1071 -16.0669 -16.0557 -16.0093 -15.9924 -15.9741
   -15.8988 -15.8898  -1.2395   1.2023   5.1549   6.4969  10.8158  12.0270
    14.1715  15.2611

          k = 0.7518-0.2506 1.0024 (  3979 PWs)   bands (ev):

   -16.1799 -16.1792 -16.1177 -16.0609 -16.0488 -16.0269 -15.9910 -15.9605
   -15.8964 -15.8959  -1.4009   1.6311   5.3925   5.9618  10.5095  11.0913
    14.0100  16.1367

          k = 0.6265-0.1253 0.8771 (  3987 PWs)   bands (ev):

   -16.1892 -16.1814 -16.0961 -16.0509 -16.0449 -16.0241 -16.0087 -15.9811
   -15.8933 -15.8860  -0.6866   0.7860   4.8099   5.7851  10.8695  12.6571
    13.5911  15.3782

          k = 0.5012-0.0000 0.7518 (  3987 PWs)   bands (ev):

   -16.1895 -16.1809 -16.0968 -16.0569 -16.0354 -16.0312 -16.0047 -15.9808
   -15.8940 -15.8862  -0.9909   1.1274   4.6715   6.1167  11.1708  12.9782
    13.4606  15.0846

          k =-0.2506-1.0024 0.0000 (  3982 PWs)   bands (ev):

   -16.1831 -16.1831 -16.0882 -16.0882 -16.0258 -16.0258 -15.9893 -15.9893
   -15.8912 -15.8912   0.0199   0.0199   5.3622   5.3622  10.5600  10.5600
    15.8698  15.8698

          k =-0.5012-1.0024 0.0000 (  3996 PWs)   bands (ev):

   -16.1880 -16.1880 -16.0691 -16.0691 -16.0302 -16.0302 -16.0035 -16.0035
   -15.8868 -15.8868   0.0602   0.0602   5.0332   5.0332  12.6811  12.6811
    13.2957  13.2957

     the Fermi energy is     8.5582 ev

!    total energy              =    -357.28480734 Ry
     estimated scf accuracy    <       0.00000039 Ry
     smearing contrib. (-TS)   =      -0.00008897 Ry
     internal energy E=F+TS    =    -357.28471837 Ry

     The total energy is F=E-TS. E is the sum of the following terms:
     one-electron contribution =    -190.31459955 Ry
     hartree contribution      =     113.39997117 Ry
     xc contribution           =     -87.25201817 Ry
     ewald contribution        =    -193.11807182 Ry

     convergence has been achieved in   6 iterations

     Forces acting on atoms (cartesian axes, Ry/au):

     atom    1 type  1   force =     0.00000000    0.00000000    0.00000000
     atom    2 type  1   force =    -0.00000000   -0.00000000   -0.00000000
     The non-local contrib.  to forces
     atom    1 type  1   force =     0.00000000    0.00000000    0.00000000
     atom    2 type  1   force =     0.00000000    0.00000000    0.00000000
     The ionic contribution  to forces
     atom    1 type  1   force =    -0.00000000   -0.00000000   -0.00000000
     atom    2 type  1   force =    -0.00000000    0.00000000   -0.00000000
     The local contribution  to forces
     atom    1 type  1   force =    -0.00000000    0.00000000    0.00000000
     atom    2 type  1   force =     0.00000000    0.00000000    0.00000000
     The core correction contribution to forces
     atom    1 type  1   force =    -0.00000000    0.00000000    0.00000000
     atom    2 type  1   force =     0.00000000    0.00000000    0.00000000
     The Hubbard contrib.    to forces
     atom    1 type  1   force =     0.00000000    0.00000000    0.00000000
     atom    2 type  1   force =     0.00000000    0.00000000    0.00000000
     The SCF correction term to forces
     atom    1 type  1   force =     0.00000000   -0.00000000   -0.00000000
     atom    2 type  1   force =    -0.00000000   -0.00000000   -0.00000000

     Total force =     0.000000     Total SCF correction =     0.000000


     Computing stress (Cartesian axis) and pressure

          total   stress  (Ry/bohr**3)                   (kbar)     P=       -6.85
  -0.00004660   0.00000000  -0.00000000           -6.85        0.00       -0.00
   0.00000000  -0.00004660   0.00000000            0.00       -6.85        0.00
  -0.00000000   0.00000000  -0.00004660           -0.00        0.00       -6.85

     Energy error            =      1.3E-04 Ry
     Gradient error          =      1.6E-31 Ry/Bohr
     Cell gradient error     =      6.9E+00 kbar

     number of scf cycles    =   2
     number of bfgs steps    =   1

     enthalpy           old  =    -357.2846735721 Ry
     enthalpy           new  =    -357.2848073361 Ry

     CASE: enthalpy          _new < enthalpy          _old

     new trust radius        =       0.0082073322 bohr
     new conv_thr            =       0.0000000100 Ry

     new unit-cell volume =    324.60913 a.u.^3 (    48.10211 Ang^3 )
     density =      5.01454 g/cm^3

CELL_PARAMETERS (alat= 10.96041152)
  -0.497679844   0.000000000   0.497679844
  -0.000000000   0.497679844   0.497679844
  -0.497679844   0.497679844   0.000000000

ATOMIC_POSITIONS (alat)
Ge           -0.0000000000        0.0000000000        0.0000000000
Ge            0.2488399219        0.2488399219        0.2488399219



     Writing config-only to output data dir ./Ge_out/Ge_scf.save/
     NEW-OLD atomic charge density approx. for the potential
     extrapolated charge   27.80847, renormalised to   28.00000

     total cpu time spent up to now is       60.8 secs

     Self-consistent Calculation

     iteration #  1     ecut=    80.00 Ry     beta= 0.40
     Davidson diagonalization with overlap
     ethr =  1.00E-06,  avg # of iterations =  4.8

     total cpu time spent up to now is       66.8 secs

     total energy              =    -357.27986380 Ry
     estimated scf accuracy    <       0.00270932 Ry

     iteration #  2     ecut=    80.00 Ry     beta= 0.40
     Davidson diagonalization with overlap
     ethr =  9.68E-06,  avg # of iterations =  3.8

     total cpu time spent up to now is       71.9 secs

     total energy              =    -357.28506742 Ry
     estimated scf accuracy    <       0.00099546 Ry

     iteration #  3     ecut=    80.00 Ry     beta= 0.40
     Davidson diagonalization with overlap
     ethr =  3.56E-06,  avg # of iterations =  1.0

     total cpu time spent up to now is       75.0 secs

     total energy              =    -357.28492555 Ry
     estimated scf accuracy    <       0.00043864 Ry

     iteration #  4     ecut=    80.00 Ry     beta= 0.40
     Davidson diagonalization with overlap
     ethr =  1.57E-06,  avg # of iterations =  1.1

     total cpu time spent up to now is       78.2 secs

     total energy              =    -357.28494461 Ry
     estimated scf accuracy    <       0.00014327 Ry

     iteration #  5     ecut=    80.00 Ry     beta= 0.40
     Davidson diagonalization with overlap
     ethr =  5.12E-07,  avg # of iterations =  1.0

     total cpu time spent up to now is       81.3 secs

     total energy              =    -357.28484308 Ry
     estimated scf accuracy    <       0.00014259 Ry

     iteration #  6     ecut=    80.00 Ry     beta= 0.40
     Davidson diagonalization with overlap
     ethr =  5.09E-07,  avg # of iterations =  2.0

     total cpu time spent up to now is       85.4 secs

     total energy              =    -357.28487538 Ry
     estimated scf accuracy    <       0.00000021 Ry

     iteration #  7     ecut=    80.00 Ry     beta= 0.40
     Davidson diagonalization with overlap
     ethr =  7.38E-10,  avg # of iterations =  4.0

     total cpu time spent up to now is       89.4 secs

     total energy              =    -357.28487568 Ry
     estimated scf accuracy    <       0.00000016 Ry

     iteration #  8     ecut=    80.00 Ry     beta= 0.40
     Davidson diagonalization with overlap
     ethr =  5.79E-10,  avg # of iterations =  2.0

     total cpu time spent up to now is       93.2 secs

     total energy              =    -357.28487550 Ry
     estimated scf accuracy    <       0.00000037 Ry

     iteration #  9     ecut=    80.00 Ry     beta= 0.40
     Davidson diagonalization with overlap
     ethr =  5.79E-10,  avg # of iterations =  2.0

     total cpu time spent up to now is       97.0 secs

     total energy              =    -357.28487557 Ry
     estimated scf accuracy    <       0.00000004 Ry

     iteration # 10     ecut=    80.00 Ry     beta= 0.40
     Davidson diagonalization with overlap
     ethr =  1.60E-10,  avg # of iterations =  1.0

     total cpu time spent up to now is      100.1 secs

     total energy              =    -357.28487551 Ry
     estimated scf accuracy    <       0.00000010 Ry

     iteration # 11     ecut=    80.00 Ry     beta= 0.40
     Davidson diagonalization with overlap
     ethr =  1.60E-10,  avg # of iterations =  2.0

     total cpu time spent up to now is      104.2 secs

     End of self-consistent calculation

          k = 0.0000 0.0000 0.0000 (  3943 PWs)   bands (ev):

   -16.0601 -16.0601 -16.0601 -16.0303 -16.0303 -15.8492 -15.8492 -15.8492
   -15.8424 -15.8424  -3.6083   8.2083   8.7172   8.7172   8.7172  11.2425
    11.2425  11.2425

          k =-0.1256 0.1256-0.1256 (  3945 PWs)   bands (ev):

   -16.0670 -16.0670 -16.0579 -16.0207 -16.0207 -15.8613 -15.8613 -15.8517
   -15.8318 -15.8318  -3.4289   6.2594   8.4090   8.4090   9.4967  11.6596
    11.6596  12.0306

          k =-0.2512 0.2512-0.2512 (  3966 PWs)   bands (ev):

   -16.0756 -16.0756 -16.0525 -16.0061 -16.0061 -15.8738 -15.8738 -15.8578
   -15.8223 -15.8223  -2.9100   4.0629   7.8973   7.8973   9.1919  12.2691
    12.2691  14.0142

          k =-0.3767 0.3767-0.3767 (  3954 PWs)   bands (ev):

   -16.0801 -16.0801 -16.0470 -15.9971 -15.9971 -15.8807 -15.8807 -15.8641
   -15.8173 -15.8173  -2.1564   2.2396   7.5317   7.5317   8.8477  12.4430
    12.4430  15.8480

          k = 0.5023-0.5023 0.5023 (  3996 PWs)   bands (ev):

   -16.0812 -16.0812 -16.0446 -15.9946 -15.9946 -15.8824 -15.8824 -15.8667
   -15.8158 -15.8158  -1.6642   1.3827   7.4041   7.4041   8.7222  12.4241
    12.4241  15.8234

          k = 0.0000 0.2512 0.0000 (  3947 PWs)   bands (ev):

   -16.0663 -16.0650 -16.0650 -16.0228 -16.0102 -15.8796 -15.8492 -15.8420
   -15.8420 -15.8283  -3.3681   6.1686   7.9135   7.9135  10.6119  10.6288
    12.3504  12.3504

          k =-0.1256 0.3767-0.1256 (  3965 PWs)   bands (ev):

   -16.0781 -16.0721 -16.0573 -16.0110 -15.9934 -15.8971 -15.8628 -15.8454
   -15.8299 -15.8195  -2.9576   4.5245   7.2876   7.3866  10.5222  11.1565
    13.1400  13.4286

          k =-0.2512 0.5023-0.2512 (  3984 PWs)   bands (ev):

   -16.0874 -16.0787 -16.0446 -15.9980 -15.9829 -15.9048 -15.8762 -15.8592
   -15.8201 -15.8098  -2.2582   2.7155   6.6330   7.0870  10.1844  11.9332
    13.3404  14.2147

          k = 0.6279-0.3767 0.6279 (  3979 PWs)   bands (ev):

   -16.0913 -16.0830 -16.0338 -15.9881 -15.9847 -15.8986 -15.8874 -15.8725
   -15.8136 -15.8056  -1.5692   1.4803   6.2002   7.0805   9.9541  12.2189
    13.1039  15.7095

          k = 0.5023-0.2512 0.5023 (  3967 PWs)   bands (ev):

   -16.0893 -16.0851 -16.0324 -15.9939 -15.9834 -15.8947 -15.8827 -15.8785
   -15.8108 -15.8086  -1.7570   1.7832   6.0759   7.3582   9.9547  12.4532
    12.8186  15.8334

          k = 0.3767-0.1256 0.3767 (  3971 PWs)   bands (ev):

   -16.0834 -16.0816 -16.0421 -16.0038 -15.9891 -15.8921 -15.8782 -15.8613
   -15.8190 -15.8127  -2.5197   3.2914   6.3261   7.8513  10.1472  12.4110
    12.5830  14.2005

          k = 0.2512 0.0000 0.2512 (  3973 PWs)   bands (ev):

   -16.0765 -16.0706 -16.0545 -16.0144 -16.0048 -15.8788 -15.8697 -15.8445
   -15.8344 -15.8199  -3.1343   5.0409   7.1091   8.3581  10.1775  11.7839
    11.8980  13.2926

          k = 0.0000 0.5023 0.0000 (  3976 PWs)   bands (ev):

   -16.0759 -16.0759 -16.0649 -16.0017 -15.9717 -15.9239 -15.8688 -15.8302
   -15.8255 -15.8255  -2.6559   3.9733   6.8258   6.8258   9.7836  11.2993
    14.3177  14.3177

          k =-0.1256 0.6279-0.1256 (  3986 PWs)   bands (ev):

   -16.0882 -16.0817 -16.0487 -15.9869 -15.9546 -15.9414 -15.8837 -15.8493
   -15.8163 -15.8092  -2.0369   2.7053   6.0570   6.4955  10.0180  11.3146
    14.2744  14.9329

          k = 0.7535-0.2512 0.7535 (  3983 PWs)   bands (ev):

   -16.0989 -16.0864 -16.0276 -15.9723 -15.9549 -15.9387 -15.9001 -15.8720
   -15.8090 -15.7971  -1.2649   1.4922   5.2374   6.4795  10.1294  12.7343
    14.0156  14.7337

          k = 0.6279-0.1256 0.6279 (  3979 PWs)   bands (ev):

   -16.1017 -16.0892 -16.0169 -15.9699 -15.9628 -15.9201 -15.9126 -15.8835
   -15.8056 -15.7945  -1.1189   1.3007   4.8457   6.7778  10.2925  13.5243
    14.2125  15.2233

          k = 0.5023 0.0000 0.5023 (  3955 PWs)   bands (ev):

   -16.0949 -16.0885 -16.0224 -15.9926 -15.9699 -15.9088 -15.8900 -15.8823
   -15.8067 -15.8031  -1.8394   2.2969   5.1207   7.3145  10.5524  13.3683
    13.6217  13.8439

          k = 0.0000 0.7535 0.0000 (  3988 PWs)   bands (ev):

   -16.0857 -16.0857 -16.0476 -15.9717 -15.9704 -15.9274 -15.8985 -15.8502
   -15.8100 -15.8100  -1.4991   1.9064   6.1002   6.1002   9.3699  10.3086
    16.4011  16.4011

          k = 0.8791-0.1256 0.8791 (  3990 PWs)   bands (ev):

   -16.0950 -16.0887 -16.0256 -15.9853 -15.9531 -15.9163 -15.9131 -15.8732
   -15.8053 -15.7997  -0.7219   0.9215   5.4043   6.0168   9.6742  10.6613
    16.2360  16.6700

          k = 0.7535 0.0000 0.7535 (  3995 PWs)   bands (ev):

   -16.1036 -16.0902 -16.0135 -15.9639 -15.9439 -15.9314 -15.9280 -15.8854
   -15.8036 -15.7916  -0.4107   0.6131   4.6918   6.2623   9.9063  12.6768
    15.5704  15.8024

          k = 0.0000-1.0047 0.0000 (  3984 PWs)   bands (ev):

   -16.0895 -16.0895 -16.0152 -16.0152 -15.9341 -15.9341 -15.8846 -15.8846
   -15.8039 -15.8039   0.0492   0.0492   5.8502   5.8502   9.5394   9.5394
    17.7362  17.7362

          k =-0.2512 0.5023-0.0000 (  3978 PWs)   bands (ev):

   -16.0845 -16.0826 -16.0456 -15.9998 -15.9755 -15.9155 -15.8737 -15.8554
   -15.8178 -15.8123  -2.4451   3.3840   6.0645   7.2084  11.0539  11.2567
    13.3378  14.0438

          k = 0.6279-0.3767 0.8791 (  3980 PWs)   bands (ev):

   -16.0947 -16.0880 -16.0270 -15.9870 -15.9648 -15.9231 -15.8877 -15.8759
   -15.8083 -15.8022  -1.6911   2.0300   5.4036   6.7676  11.0058  12.0569
    13.5268  14.6545

          k = 0.5023-0.2512 0.7535 (  3974 PWs)   bands (ev):

   -16.0991 -16.0892 -16.0185 -15.9775 -15.9661 -15.9188 -15.9015 -15.8829
   -15.8063 -15.7971  -1.1780   1.2727   5.2211   6.5702  10.9276  12.1195
    14.2872  15.3845

          k = 0.7535-0.2512 1.0047 (  3979 PWs)   bands (ev):

   -16.0926 -16.0918 -16.0293 -15.9713 -15.9592 -15.9366 -15.9000 -15.8690
   -15.8038 -15.8034  -1.3423   1.7105   5.4573   6.0306  10.6014  11.1917
    14.1219  16.2698

          k = 0.6279-0.1256 0.8791 (  3987 PWs)   bands (ev):

   -16.1020 -16.0941 -16.0074 -15.9612 -15.9550 -15.9338 -15.9180 -15.8900
   -15.8007 -15.7932  -0.6219   0.8591   4.8695   5.8524  10.9669  12.7689
    13.6953  15.5033

          k = 0.5023-0.0000 0.7535 (  3987 PWs)   bands (ev):

   -16.1023 -16.0935 -16.0080 -15.9673 -15.9453 -15.9411 -15.9140 -15.8897
   -15.8014 -15.7934  -0.9284   1.2025   4.7299   6.1869  11.2755  13.0873
    13.5664  15.2081

          k =-0.2512-1.0047 0.0000 (  3982 PWs)   bands (ev):

   -16.0958 -16.0958 -15.9993 -15.9993 -15.9354 -15.9354 -15.8983 -15.8983
   -15.7985 -15.7985   0.0887   0.0887   5.4264   5.4264  10.6524  10.6524
    15.9975  15.9975

          k =-0.5023-1.0047 0.0000 (  3996 PWs)   bands (ev):

   -16.1008 -16.1008 -15.9798 -15.9798 -15.9400 -15.9400 -15.9127 -15.9127
   -15.7940 -15.7940   0.1299   0.1299   5.0938   5.0938  12.7998  12.7998
    13.3917  13.3917

     the Fermi energy is     8.6605 ev

!    total energy              =    -357.28487551 Ry
     estimated scf accuracy    <          5.4E-09 Ry
     smearing contrib. (-TS)   =      -0.00008364 Ry
     internal energy E=F+TS    =    -357.28479187 Ry

     The total energy is F=E-TS. E is the sum of the following terms:
     one-electron contribution =    -189.59967323 Ry
     hartree contribution      =     113.13115066 Ry
     xc contribution           =     -87.25883690 Ry
     ewald contribution        =    -193.55743240 Ry

     convergence has been achieved in  11 iterations

     Forces acting on atoms (cartesian axes, Ry/au):

     atom    1 type  1   force =    -0.00000000   -0.00000000    0.00000000
     atom    2 type  1   force =     0.00000000    0.00000000   -0.00000000
     The non-local contrib.  to forces
     atom    1 type  1   force =    -0.00000000   -0.00000000    0.00000000
     atom    2 type  1   force =    -0.00000000   -0.00000000   -0.00000000
     The ionic contribution  to forces
     atom    1 type  1   force =    -0.00000000    0.00000000   -0.00000000
     atom    2 type  1   force =    -0.00000000   -0.00000000   -0.00000000
     The local contribution  to forces
     atom    1 type  1   force =    -0.00000000    0.00000000    0.00000000
     atom    2 type  1   force =     0.00000000    0.00000000    0.00000000
     The core correction contribution to forces
     atom    1 type  1   force =    -0.00000000   -0.00000000    0.00000000
     atom    2 type  1   force =     0.00000000    0.00000000    0.00000000
     The Hubbard contrib.    to forces
     atom    1 type  1   force =     0.00000000    0.00000000    0.00000000
     atom    2 type  1   force =     0.00000000    0.00000000    0.00000000
     The SCF correction term to forces
     atom    1 type  1   force =    -0.00000000    0.00000000    0.00000000
     atom    2 type  1   force =    -0.00000000   -0.00000000    0.00000000

     Total force =     0.000000     Total SCF correction =     0.000000


     Computing stress (Cartesian axis) and pressure

          total   stress  (Ry/bohr**3)                   (kbar)     P=       -2.85
  -0.00001940   0.00000000   0.00000000           -2.85        0.00        0.00
   0.00000000  -0.00001940  -0.00000000            0.00       -2.85       -0.00
   0.00000000  -0.00000000  -0.00001940            0.00       -0.00       -2.85

     Energy error            =      6.8E-05 Ry
     Gradient error          =      3.3E-31 Ry/Bohr
     Cell gradient error     =      2.9E+00 kbar

     number of scf cycles    =   3
     number of bfgs steps    =   2

     enthalpy           old  =    -357.2848073361 Ry
     enthalpy           new  =    -357.2848755131 Ry

     CASE: enthalpy          _new < enthalpy          _old

     new trust radius        =       0.0058029917 bohr
     new conv_thr            =       0.0000000100 Ry

     new unit-cell volume =    323.04338 a.u.^3 (    47.87009 Ang^3 )
     density =      5.03884 g/cm^3

CELL_PARAMETERS (alat= 10.96041152)
  -0.496878366   0.000000000   0.496878366
   0.000000000   0.496878366   0.496878366
  -0.496878366   0.496878366   0.000000000

ATOMIC_POSITIONS (alat)
Ge           -0.0000000000        0.0000000000        0.0000000000
Ge            0.2484391829        0.2484391829        0.2484391829



     Writing config-only to output data dir ./Ge_out/Ge_scf.save/
     NEW-OLD atomic charge density approx. for the potential
     extrapolated charge   27.86430, renormalised to   28.00000

     total cpu time spent up to now is      109.6 secs

     Self-consistent Calculation

     iteration #  1     ecut=    80.00 Ry     beta= 0.40
     Davidson diagonalization with overlap
     ethr =  1.00E-06,  avg # of iterations =  4.0

     total cpu time spent up to now is      114.9 secs

     total energy              =    -357.28235960 Ry
     estimated scf accuracy    <       0.00136056 Ry

     iteration #  2     ecut=    80.00 Ry     beta= 0.40
     Davidson diagonalization with overlap
     ethr =  4.86E-06,  avg # of iterations =  3.7

     total cpu time spent up to now is      120.0 secs

     total energy              =    -357.28498570 Ry
     estimated scf accuracy    <       0.00050617 Ry

     iteration #  3     ecut=    80.00 Ry     beta= 0.40
     Davidson diagonalization with overlap
     ethr =  1.81E-06,  avg # of iterations =  1.1

     total cpu time spent up to now is      123.1 secs

     total energy              =    -357.28491503 Ry
     estimated scf accuracy    <       0.00022365 Ry

     iteration #  4     ecut=    80.00 Ry     beta= 0.40
     Davidson diagonalization with overlap
     ethr =  7.99E-07,  avg # of iterations =  1.0

     total cpu time spent up to now is      126.2 secs

     total energy              =    -357.28492252 Ry
     estimated scf accuracy    <       0.00007569 Ry

     iteration #  5     ecut=    80.00 Ry     beta= 0.40
     Davidson diagonalization with overlap
     ethr =  2.70E-07,  avg # of iterations =  1.0

     total cpu time spent up to now is      129.3 secs

     total energy              =    -357.28487082 Ry
     estimated scf accuracy    <       0.00007220 Ry

     iteration #  6     ecut=    80.00 Ry     beta= 0.40
     Davidson diagonalization with overlap
     ethr =  2.58E-07,  avg # of iterations =  2.0

     total cpu time spent up to now is      133.4 secs

     total energy              =    -357.28488764 Ry
     estimated scf accuracy    <       0.00000013 Ry

     iteration #  7     ecut=    80.00 Ry     beta= 0.40
     Davidson diagonalization with overlap
     ethr =  4.72E-10,  avg # of iterations =  4.0

     total cpu time spent up to now is      137.5 secs

     total energy              =    -357.28488773 Ry
     estimated scf accuracy    <       0.00000015 Ry

     iteration #  8     ecut=    80.00 Ry     beta= 0.40
     Davidson diagonalization with overlap
     ethr =  4.72E-10,  avg # of iterations =  1.0

     total cpu time spent up to now is      140.6 secs

     total energy              =    -357.28488769 Ry
     estimated scf accuracy    <       0.00000011 Ry

     iteration #  9     ecut=    80.00 Ry     beta= 0.40
     Davidson diagonalization with overlap
     ethr =  4.11E-10,  avg # of iterations =  1.0

     total cpu time spent up to now is      143.7 secs

     total energy              =    -357.28488769 Ry
     estimated scf accuracy    <       0.00000004 Ry

     iteration # 10     ecut=    80.00 Ry     beta= 0.40
     Davidson diagonalization with overlap
     ethr =  1.45E-10,  avg # of iterations =  1.0

     total cpu time spent up to now is      146.8 secs

     total energy              =    -357.28488770 Ry
     estimated scf accuracy    <       0.00000003 Ry

     iteration # 11     ecut=    80.00 Ry     beta= 0.40
     Davidson diagonalization with overlap
     ethr =  1.13E-10,  avg # of iterations =  1.0

     total cpu time spent up to now is      149.9 secs

     total energy              =    -357.28488767 Ry
     estimated scf accuracy    <       0.00000005 Ry

     iteration # 12     ecut=    80.00 Ry     beta= 0.40
     Davidson diagonalization with overlap
     ethr =  1.13E-10,  avg # of iterations =  2.0

     total cpu time spent up to now is      154.0 secs

     End of self-consistent calculation

          k = 0.0000 0.0000 0.0000 (  3943 PWs)   bands (ev):

   -16.0012 -16.0012 -16.0012 -15.9711 -15.9711 -15.7878 -15.7878 -15.7878
   -15.7805 -15.7805  -3.5778   8.3156   8.7823   8.7823   8.7823  11.3100
    11.3100  11.3100

          k =-0.1258 0.1258-0.1258 (  3945 PWs)   bands (ev):

   -16.0082 -16.0082 -15.9990 -15.9613 -15.9613 -15.7999 -15.7999 -15.7903
   -15.7700 -15.7700  -3.3976   6.3342   8.4720   8.4720   9.5814  11.7295
    11.7295  12.1088

          k =-0.2516 0.2516-0.2516 (  3966 PWs)   bands (ev):

   -16.0170 -16.0170 -15.9936 -15.9466 -15.9466 -15.8125 -15.8125 -15.7964
   -15.7604 -15.7604  -2.8761   4.1240   7.9575   7.9575   9.2722  12.3407
    12.3407  14.1057

          k =-0.3774 0.3774-0.3774 (  3954 PWs)   bands (ev):

   -16.0215 -16.0215 -15.9880 -15.9375 -15.9375 -15.8194 -15.8194 -15.8028
   -15.7553 -15.7553  -2.1182   2.2904   7.5903   7.5903   8.9266  12.5125
    12.5125  15.9269

          k = 0.5031-0.5031 0.5031 (  3996 PWs)   bands (ev):

   -16.0226 -16.0226 -15.9856 -15.9349 -15.9349 -15.8211 -15.8211 -15.8055
   -15.7538 -15.7538  -1.6225   1.4280   7.4621   7.4621   8.8008  12.4923
    12.4923  15.8923

          k = 0.0000 0.2516 0.0000 (  3947 PWs)   bands (ev):

   -16.0076 -16.0062 -16.0062 -15.9635 -15.9507 -15.8185 -15.7875 -15.7804
   -15.7804 -15.7664  -3.3365   6.2474   7.9731   7.9731  10.6936  10.7037
    12.4246  12.4246

          k =-0.1258 0.3774-0.1258 (  3965 PWs)   bands (ev):

   -16.0195 -16.0134 -15.9985 -15.9515 -15.9336 -15.8362 -15.8012 -15.7838
   -15.7682 -15.7575  -2.9240   4.5917   7.3459   7.4435  10.5976  11.2345
    13.2173  13.5062

          k =-0.2516 0.5031-0.2516 (  3984 PWs)   bands (ev):

   -16.0289 -16.0201 -15.9856 -15.9384 -15.9231 -15.8440 -15.8148 -15.7977
   -15.7582 -15.7477  -2.2209   2.7713   6.6895   7.1426  10.2622  12.0056
    13.4155  14.2900

          k = 0.6289-0.3774 0.6289 (  3979 PWs)   bands (ev):

   -16.0329 -16.0245 -15.9747 -15.9283 -15.9249 -15.8376 -15.8262 -15.8112
   -15.7516 -15.7434  -1.5273   1.5281   6.2548   7.1364  10.0320  12.2875
    13.1759  15.7913

          k = 0.5031-0.2516 0.5031 (  3967 PWs)   bands (ev):

   -16.0308 -16.0266 -15.9732 -15.9342 -15.9235 -15.8336 -15.8215 -15.8174
   -15.7487 -15.7465  -1.7165   1.8331   6.1291   7.4158  10.0337  12.5220
    12.8897  15.9206

          k = 0.3774-0.1258 0.3774 (  3971 PWs)   bands (ev):

   -16.0248 -16.0230 -15.9831 -15.9442 -15.9293 -15.8310 -15.8170 -15.7999
   -15.7571 -15.7506  -2.4838   3.3507   6.3787   7.9117  10.2286  12.4826
    12.6563  14.2837

          k = 0.2516 0.0000 0.2516 (  3973 PWs)   bands (ev):

   -16.0179 -16.0119 -15.9956 -15.9550 -15.9452 -15.8176 -15.8084 -15.7828
   -15.7727 -15.7579  -3.1016   5.1105   7.1640   8.4214  10.2629  11.8537
    11.9712  13.3746

          k = 0.0000 0.5031 0.0000 (  3976 PWs)   bands (ev):

   -16.0172 -16.0172 -16.0062 -15.9420 -15.9116 -15.8634 -15.8073 -15.7683
   -15.7637 -15.7637  -2.6209   4.0412   6.8797   6.8797   9.8450  11.3785
    14.4015  14.4015

          k =-0.1258 0.6289-0.1258 (  3986 PWs)   bands (ev):

   -16.0297 -16.0231 -15.9898 -15.9271 -15.8944 -15.8811 -15.8225 -15.7877
   -15.7543 -15.7471  -1.9988   2.7660   6.1071   6.5478  10.0812  11.3888
    14.3554  15.0175

          k = 0.7547-0.2516 0.7547 (  3983 PWs)   bands (ev):

   -16.0406 -16.0279 -15.9684 -15.9123 -15.8947 -15.8783 -15.8390 -15.8107
   -15.7470 -15.7349  -1.2223   1.5454   5.2835   6.5319  10.1953  12.8163
    14.0914  14.8146

          k = 0.6289-0.1258 0.6289 (  3979 PWs)   bands (ev):

   -16.0434 -16.0307 -15.9575 -15.9099 -15.9026 -15.8595 -15.8517 -15.8224
   -15.7434 -15.7322  -1.0751   1.3523   4.8895   6.8320  10.3618  13.6074
    14.2915  15.3116

          k = 0.5031 0.0000 0.5031 (  3955 PWs)   bands (ev):

   -16.0365 -16.0300 -15.9631 -15.9329 -15.9099 -15.8480 -15.8291 -15.8211
   -15.7446 -15.7410  -1.7998   2.3542   5.1652   7.3717  10.6282  13.4448
    13.7038  13.9233

          k = 0.0000 0.7547 0.0000 (  3988 PWs)   bands (ev):

   -16.0271 -16.0271 -15.9887 -15.9118 -15.9104 -15.8668 -15.8375 -15.7886
   -15.7480 -15.7480  -1.4584   1.9640   6.1505   6.1505   9.4293  10.3727
    16.4951  16.4951

          k = 0.8805-0.1258 0.8805 (  3990 PWs)   bands (ev):

   -16.0366 -16.0302 -15.9664 -15.9256 -15.8928 -15.8555 -15.8523 -15.8119
   -15.7432 -15.7375  -0.6772   0.9742   5.4502   6.0668   9.7351  10.7271
    16.3311  16.7637

          k = 0.7547 0.0000 0.7547 (  3995 PWs)   bands (ev):

   -16.0453 -16.0317 -15.9541 -15.9039 -15.8835 -15.8709 -15.8673 -15.8243
   -15.7415 -15.7293  -0.3633   0.6636   4.7331   6.3136   9.9694  12.7524
    15.6640  15.8911

          k = 0.0000-1.0063 0.0000 (  3984 PWs)   bands (ev):

   -16.0310 -16.0310 -15.9559 -15.9559 -15.8736 -15.8736 -15.8235 -15.8235
   -15.7418 -15.7418   0.0975   0.0975   5.8994   5.8994   9.5992   9.5992
    17.8402  17.8402

          k =-0.2516 0.5031-0.0000 (  3978 PWs)   bands (ev):

   -16.0260 -16.0240 -15.9866 -15.9402 -15.9155 -15.8548 -15.8124 -15.7939
   -15.7559 -15.7502  -2.4090   3.4470   6.1140   7.2652  11.1216  11.3429
    13.4063  14.1260

          k = 0.6289-0.3774 0.8805 (  3980 PWs)   bands (ev):

   -16.0363 -16.0295 -15.9678 -15.9272 -15.9047 -15.8625 -15.8265 -15.8146
   -15.7462 -15.7401  -1.6507   2.0852   5.4510   6.8214  11.0849  12.1287
    13.6000  14.7367

          k = 0.5031-0.2516 0.7547 (  3974 PWs)   bands (ev):

   -16.0408 -16.0307 -15.9592 -15.9176 -15.9060 -15.8581 -15.8405 -15.8218
   -15.7442 -15.7349  -1.1342   1.3227   5.2685   6.6227  11.0073  12.1856
    14.3697  15.4724

          k = 0.7547-0.2516 1.0063 (  3979 PWs)   bands (ev):

   -16.0341 -16.0334 -15.9701 -15.9112 -15.8991 -15.8761 -15.8390 -15.8077
   -15.7417 -15.7412  -1.3006   1.7670   5.5036   6.0799  10.6670  11.2632
    14.2018  16.3646

          k = 0.6289-0.1258 0.8805 (  3987 PWs)   bands (ev):

   -16.0437 -16.0356 -15.9479 -15.9012 -15.8948 -15.8733 -15.8573 -15.8289
   -15.7385 -15.7310  -0.5758   0.9111   4.9122   5.9006  11.0363  12.8484
    13.7698  15.5924

          k = 0.5031-0.0000 0.7547 (  3987 PWs)   bands (ev):

   -16.0440 -16.0351 -15.9486 -15.9072 -15.8849 -15.8808 -15.8532 -15.8286
   -15.7392 -15.7311  -0.8839   1.2559   4.7718   6.2371  11.3501  13.1651
    13.6421  15.2961

          k =-0.2516-1.0063-0.0000 (  3982 PWs)   bands (ev):

   -16.0374 -16.0374 -15.9398 -15.9398 -15.8749 -15.8749 -15.8373 -15.8373
   -15.7363 -15.7363   0.1376   0.1376   5.4723   5.4723  10.7183  10.7183
    16.0885  16.0885

          k =-0.5031-1.0063 0.0000 (  3996 PWs)   bands (ev):

   -16.0425 -16.0425 -15.9200 -15.9200 -15.8795 -15.8795 -15.8519 -15.8519
   -15.7317 -15.7317   0.1795   0.1795   5.1373   5.1373  12.8843  12.8843
    13.4603  13.4603

     the Fermi energy is     8.7333 ev

!    total energy              =    -357.28488768 Ry
     estimated scf accuracy    <          2.6E-09 Ry
     smearing contrib. (-TS)   =      -0.00008030 Ry
     internal energy E=F+TS    =    -357.28480738 Ry

     The total energy is F=E-TS. E is the sum of the following terms:
     one-electron contribution =    -189.09077575 Ry
     hartree contribution      =     112.93926129 Ry
     xc contribution           =     -87.26364721 Ry
     ewald contribution        =    -193.86964571 Ry

     convergence has been achieved in  12 iterations

     Forces acting on atoms (cartesian axes, Ry/au):

     atom    1 type  1   force =    -0.00000000   -0.00000000    0.00000000
     atom    2 type  1   force =     0.00000000    0.00000000   -0.00000000
     The non-local contrib.  to forces
     atom    1 type  1   force =     0.00000000    0.00000000   -0.00000000
     atom    2 type  1   force =     0.00000000    0.00000000    0.00000000
     The ionic contribution  to forces
     atom    1 type  1   force =    -0.00000000   -0.00000000   -0.00000000
     atom    2 type  1   force =    -0.00000000   -0.00000000   -0.00000000
     The local contribution  to forces
     atom    1 type  1   force =    -0.00000000    0.00000000    0.00000000
     atom    2 type  1   force =     0.00000000    0.00000000    0.00000000
     The core correction contribution to forces
     atom    1 type  1   force =     0.00000000    0.00000000    0.00000000
     atom    2 type  1   force =     0.00000000    0.00000000    0.00000000
     The Hubbard contrib.    to forces
     atom    1 type  1   force =     0.00000000    0.00000000    0.00000000
     atom    2 type  1   force =     0.00000000    0.00000000    0.00000000
     The SCF correction term to forces
     atom    1 type  1   force =    -0.00000000   -0.00000000    0.00000000
     atom    2 type  1   force =    -0.00000000    0.00000000    0.00000000

     Total force =     0.000000     Total SCF correction =     0.000000


     Computing stress (Cartesian axis) and pressure

          total   stress  (Ry/bohr**3)                   (kbar)     P=        0.05
   0.00000037   0.00000000  -0.00000000            0.05        0.00       -0.00
   0.00000000   0.00000037  -0.00000000            0.00        0.05       -0.00
  -0.00000000  -0.00000000   0.00000037           -0.00       -0.00        0.05

     Energy error            =      1.2E-05 Ry
     Gradient error          =      3.4E-30 Ry/Bohr
     Cell gradient error     =      5.5E-02 kbar

     bfgs converged in   4 scf cycles and   3 bfgs steps
     (criteria: energy <  1.0E-04 Ry, force <  1.0E-03 Ry/Bohr, cell <  5.0E-01 kbar)

     End of BFGS Geometry Optimization

     Final enthalpy           =    -357.2848876773 Ry

     File ./Ge_out/Ge_scf.bfgs deleted, as requested
Begin final coordinates
     new unit-cell volume =    323.04338 a.u.^3 (    47.87009 Ang^3 )
     density =      5.03884 g/cm^3

CELL_PARAMETERS (alat= 10.96041152)
  -0.496878366   0.000000000   0.496878366
   0.000000000   0.496878366   0.496878366
  -0.496878366   0.496878366   0.000000000

ATOMIC_POSITIONS (alat)
Ge           -0.0000000000        0.0000000000        0.0000000000
Ge            0.2484391829        0.2484391829        0.2484391829
End final coordinates



     Writing config-only to output data dir ./Ge_out/Ge_scf.save/

     Final scf calculation at the relaxed structure.
     The G-vectors are recalculated for the final unit cell
     Results may differ from those at the preceding step.

     Parallelization info
     --------------------
     sticks:   dense  smooth     PW     G-vecs:    dense   smooth      PW
     Min         321     321     94                 7729     7729    1238
     Max         322     322     95                 7734     7734    1240
     Sum        1285    1285    379                30923    30923    4957

     Using Slab Decomposition



     bravais-lattice index     =            2
     lattice parameter (alat)  =      10.9604  a.u.
     unit-cell volume          =     323.0434 (a.u.)^3
     number of atoms/cell      =            2
     number of atomic types    =            1
     number of electrons       =        28.00
     number of Kohn-Sham states=           18
     kinetic-energy cutoff     =      80.0000  Ry
     charge density cutoff     =     320.0000  Ry
     scf convergence threshold =      1.0E-08
     mixing beta               =       0.4000
     number of iterations used =            8  plain     mixing
     press convergence thresh. =      5.0E-01
     Exchange-correlation= PBE
                           (   1   4   3   4   0   0   0)

     celldm(1)=  10.960412  celldm(2)=   0.000000  celldm(3)=   0.000000
     celldm(4)=   0.000000  celldm(5)=   0.000000  celldm(6)=   0.000000

     crystal axes: (cart. coord. in units of alat)
               a(1) = (  -0.496878   0.000000   0.496878 )  
               a(2) = (   0.000000   0.496878   0.496878 )  
               a(3) = (  -0.496878   0.496878   0.000000 )  

     reciprocal axes: (cart. coord. in units 2 pi/alat)
               b(1) = ( -1.006282 -1.006282  1.006282 )  
               b(2) = (  1.006282  1.006282  1.006282 )  
               b(3) = ( -1.006282  1.006282 -1.006282 )  


     PseudoPot. # 1 for Ge read from file:
     ./Ge.upf
     MD5 check sum: 087fa14d6c89b52166990835c3b338da
     Pseudo is Norm-conserving + core correction, Zval = 14.0
     Generated using ONCVPSP code by D. R. Hamann
     Using radial grid of 1560 points,  6 beta functions with: 
                l(1) =   0
                l(2) =   0
                l(3) =   1
                l(4) =   1
                l(5) =   2
                l(6) =   2

     atomic species   valence    mass     pseudopotential
        Ge            14.00    72.63000     Ge( 1.00)

     48 Sym. Ops., with inversion, found (24 have fractional translation)



   Cartesian axes

     site n.     atom                  positions (alat units)
         1           Ge  tau(   1) = (  -0.0000000   0.0000000   0.0000000  )
         2           Ge  tau(   2) = (   0.2484392   0.2484392   0.2484392  )

     number of k points=    29  Gaussian smearing, width (Ry)=  0.0100
                       cart. coord. in units 2pi/alat
        k(    1) = (   0.0000000   0.0000000   0.0000000), wk =   0.0039062
        k(    2) = (  -0.1257853   0.1257853  -0.1257853), wk =   0.0312500
        k(    3) = (  -0.2515706   0.2515706  -0.2515706), wk =   0.0312500
        k(    4) = (  -0.3773559   0.3773559  -0.3773559), wk =   0.0312500
        k(    5) = (   0.5031412  -0.5031412   0.5031412), wk =   0.0156250
        k(    6) = (   0.0000000   0.2515706   0.0000000), wk =   0.0234375
        k(    7) = (  -0.1257853   0.3773559  -0.1257853), wk =   0.0937500
        k(    8) = (  -0.2515706   0.5031412  -0.2515706), wk =   0.0937500
        k(    9) = (   0.6289266  -0.3773559   0.6289266), wk =   0.0937500
        k(   10) = (   0.5031412  -0.2515706   0.5031412), wk =   0.0937500
        k(   11) = (   0.3773559  -0.1257853   0.3773559), wk =   0.0937500
        k(   12) = (   0.2515706   0.0000000   0.2515706), wk =   0.0468750
        k(   13) = (   0.0000000   0.5031412   0.0000000), wk =   0.0234375
        k(   14) = (  -0.1257853   0.6289266  -0.1257853), wk =   0.0937500
        k(   15) = (   0.7547119  -0.2515706   0.7547119), wk =   0.0937500
        k(   16) = (   0.6289266  -0.1257853   0.6289266), wk =   0.0937500
        k(   17) = (   0.5031412   0.0000000   0.5031412), wk =   0.0468750
        k(   18) = (   0.0000000   0.7547119   0.0000000), wk =   0.0234375
        k(   19) = (   0.8804972  -0.1257853   0.8804972), wk =   0.0937500
        k(   20) = (   0.7547119   0.0000000   0.7547119), wk =   0.0468750
        k(   21) = (   0.0000000  -1.0062825   0.0000000), wk =   0.0117188
        k(   22) = (  -0.2515706   0.5031412  -0.0000000), wk =   0.0937500
        k(   23) = (   0.6289266  -0.3773559   0.8804972), wk =   0.1875000
        k(   24) = (   0.5031412  -0.2515706   0.7547119), wk =   0.0937500
        k(   25) = (   0.7547119  -0.2515706   1.0062825), wk =   0.0937500
        k(   26) = (   0.6289266  -0.1257853   0.8804972), wk =   0.1875000
        k(   27) = (   0.5031412  -0.0000000   0.7547119), wk =   0.0937500
        k(   28) = (  -0.2515706  -1.0062825  -0.0000000), wk =   0.0468750
        k(   29) = (  -0.5031412  -1.0062825   0.0000000), wk =   0.0234375

     Dense  grid:    30923 G-vectors     FFT dimensions: (  48,  48,  48)

     Estimated max dynamical RAM per process >      17.76 MB

     Estimated total dynamical RAM >      71.02 MB

     Initial potential from superposition of free atoms

     starting charge      27.9984, renormalised to      28.0000
     Starting wfcs are   18 randomized atomic wfcs

     total cpu time spent up to now is      160.4 secs

     Self-consistent Calculation

     iteration #  1     ecut=    80.00 Ry     beta= 0.40
     Davidson diagonalization with overlap
     ethr =  1.00E-06,  avg # of iterations = 12.6

     total cpu time spent up to now is      170.3 secs

     total energy              =    -357.28555760 Ry
     estimated scf accuracy    <       0.03151142 Ry

     iteration #  2     ecut=    80.00 Ry     beta= 0.40
     Davidson diagonalization with overlap
     ethr =  1.13E-04,  avg # of iterations =  1.0

     total cpu time spent up to now is      173.4 secs

     total energy              =    -357.28439815 Ry
     estimated scf accuracy    <       0.00961934 Ry

     iteration #  3     ecut=    80.00 Ry     beta= 0.40
     Davidson diagonalization with overlap
     ethr =  3.44E-05,  avg # of iterations =  1.0

     total cpu time spent up to now is      176.5 secs

     total energy              =    -357.28486719 Ry
     estimated scf accuracy    <       0.00011230 Ry

     iteration #  4     ecut=    80.00 Ry     beta= 0.40
     Davidson diagonalization with overlap
     ethr =  4.01E-07,  avg # of iterations =  2.1

     total cpu time spent up to now is      180.4 secs

     total energy              =    -357.28488645 Ry
     estimated scf accuracy    <       0.00000419 Ry

     iteration #  5     ecut=    80.00 Ry     beta= 0.40
     Davidson diagonalization with overlap
     ethr =  1.50E-08,  avg # of iterations =  2.0

     total cpu time spent up to now is      183.8 secs

     total energy              =    -357.28488616 Ry
     estimated scf accuracy    <       0.00000093 Ry

     iteration #  6     ecut=    80.00 Ry     beta= 0.40
     Davidson diagonalization with overlap
     ethr =  3.31E-09,  avg # of iterations =  2.1

     total cpu time spent up to now is      187.9 secs

     total energy              =    -357.28488653 Ry
     estimated scf accuracy    <       0.00000026 Ry

     iteration #  7     ecut=    80.00 Ry     beta= 0.40
     Davidson diagonalization with overlap
     ethr =  9.41E-10,  avg # of iterations =  1.0

     total cpu time spent up to now is      190.9 secs

     total energy              =    -357.28488648 Ry
     estimated scf accuracy    <       0.00000010 Ry

     iteration #  8     ecut=    80.00 Ry     beta= 0.40
     Davidson diagonalization with overlap
     ethr =  3.45E-10,  avg # of iterations =  2.0

     total cpu time spent up to now is      194.8 secs

     End of self-consistent calculation

          k = 0.0000 0.0000 0.0000 (  3839 PWs)   bands (ev):

   -16.0018 -16.0018 -16.0018 -15.9716 -15.9716 -15.7883 -15.7883 -15.7883
   -15.7811 -15.7811  -3.5779   8.3154   8.7822   8.7822   8.7822  11.3100
    11.3100  11.3100

          k =-0.1258 0.1258-0.1258 (  3870 PWs)   bands (ev):

   -16.0088 -16.0088 -15.9996 -15.9619 -15.9619 -15.8005 -15.8005 -15.7908
   -15.7705 -15.7705  -3.3977   6.3340   8.4719   8.4719   9.5812  11.7294
    11.7294  12.1087

          k =-0.2516 0.2516-0.2516 (  3885 PWs)   bands (ev):

   -16.0176 -16.0176 -15.9942 -15.9472 -15.9472 -15.8131 -15.8131 -15.7970
   -15.7610 -15.7610  -2.8762   4.1239   7.9574   7.9574   9.2720  12.3406
    12.3406  14.1055

          k =-0.3774 0.3774-0.3774 (  3879 PWs)   bands (ev):

   -16.0220 -16.0220 -15.9886 -15.9380 -15.9380 -15.8200 -15.8200 -15.8034
   -15.7559 -15.7559  -2.1183   2.2903   7.5902   7.5902   8.9265  12.5124
    12.5124  15.9266

          k = 0.5031-0.5031 0.5031 (  3852 PWs)   bands (ev):

   -16.0231 -16.0231 -15.9862 -15.9355 -15.9355 -15.8217 -15.8217 -15.8061
   -15.7544 -15.7544  -1.6226   1.4279   7.4621   7.4621   8.8007  12.4923
    12.4923  15.8921

          k = 0.0000 0.2516 0.0000 (  3871 PWs)   bands (ev):

   -16.0081 -16.0068 -16.0068 -15.9640 -15.9513 -15.8191 -15.7880 -15.7810
   -15.7810 -15.7669  -3.3366   6.2473   7.9731   7.9731  10.6935  10.7036
    12.4246  12.4246

          k =-0.1258 0.3774-0.1258 (  3898 PWs)   bands (ev):

   -16.0200 -16.0139 -15.9990 -15.9520 -15.9342 -15.8367 -15.8018 -15.7844
   -15.7687 -15.7581  -2.9241   4.5916   7.3458   7.4434  10.5975  11.2344
    13.2172  13.5061

          k =-0.2516 0.5031-0.2516 (  3911 PWs)   bands (ev):

   -16.0295 -16.0206 -15.9861 -15.9389 -15.9237 -15.8446 -15.8154 -15.7983
   -15.7587 -15.7483  -2.2210   2.7712   6.6894   7.1426  10.2621  12.0055
    13.4155  14.2898

          k = 0.6289-0.3774 0.6289 (  3903 PWs)   bands (ev):

   -16.0334 -16.0250 -15.9753 -15.9289 -15.9254 -15.8382 -15.8268 -15.8118
   -15.7522 -15.7440  -1.5274   1.5280   6.2547   7.1363  10.0319  12.2874
    13.1758  15.7912

          k = 0.5031-0.2516 0.5031 (  3896 PWs)   bands (ev):

   -16.0313 -16.0271 -15.9738 -15.9347 -15.9241 -15.8342 -15.8220 -15.8180
   -15.7493 -15.7471  -1.7166   1.8330   6.1290   7.4158  10.0336  12.5219
    12.8897  15.9205

          k = 0.3774-0.1258 0.3774 (  3893 PWs)   bands (ev):

   -16.0254 -16.0236 -15.9836 -15.9448 -15.9299 -15.8316 -15.8176 -15.8004
   -15.7576 -15.7512  -2.4839   3.3506   6.3786   7.9116  10.2285  12.4826
    12.6562  14.2835

          k = 0.2516 0.0000 0.2516 (  3885 PWs)   bands (ev):

   -16.0185 -16.0125 -15.9962 -15.9556 -15.9458 -15.8182 -15.8089 -15.7834
   -15.7733 -15.7585  -3.1017   5.1104   7.1639   8.4213  10.2628  11.8536
    11.9711  13.3745

          k = 0.0000 0.5031 0.0000 (  3928 PWs)   bands (ev):

   -16.0178 -16.0178 -16.0068 -15.9426 -15.9122 -15.8640 -15.8079 -15.7688
   -15.7642 -15.7642  -2.6210   4.0411   6.8796   6.8796   9.8448  11.3783
    14.4014  14.4014

          k =-0.1258 0.6289-0.1258 (  3912 PWs)   bands (ev):

   -16.0303 -16.0237 -15.9904 -15.9276 -15.8949 -15.8816 -15.8230 -15.7883
   -15.7549 -15.7477  -1.9989   2.7659   6.1070   6.5477  10.0811  11.3887
    14.3553  15.0174

          k = 0.7547-0.2516 0.7547 (  3905 PWs)   bands (ev):

   -16.0411 -16.0285 -15.9689 -15.9128 -15.8952 -15.8788 -15.8396 -15.8112
   -15.7476 -15.7355  -1.2224   1.5453   5.2835   6.5319  10.1951  12.8162
    14.0913  14.8146

          k = 0.6289-0.1258 0.6289 (  3912 PWs)   bands (ev):

   -16.0439 -16.0313 -15.9581 -15.9105 -15.9032 -15.8600 -15.8523 -15.8229
   -15.7440 -15.7328  -1.0752   1.3522   4.8894   6.8319  10.3616  13.6073
    14.2914  15.3115

          k = 0.5031 0.0000 0.5031 (  3891 PWs)   bands (ev):

   -16.0370 -16.0306 -15.9636 -15.9335 -15.9104 -15.8485 -15.8296 -15.8216
   -15.7451 -15.7415  -1.8000   2.3541   5.1651   7.3716  10.6281  13.4448
    13.7037  13.9232

          k = 0.0000 0.7547 0.0000 (  3928 PWs)   bands (ev):

   -16.0277 -16.0277 -15.9893 -15.9124 -15.9109 -15.8674 -15.8380 -15.7892
   -15.7486 -15.7486  -1.4586   1.9639   6.1504   6.1504   9.4292  10.3726
    16.4951  16.4951

          k = 0.8805-0.1258 0.8805 (  3919 PWs)   bands (ev):

   -16.0371 -16.0308 -15.9669 -15.9262 -15.8934 -15.8561 -15.8529 -15.8124
   -15.7437 -15.7380  -0.6773   0.9741   5.4501   6.0668   9.7350  10.7270
    16.3310  16.7636

          k = 0.7547 0.0000 0.7547 (  3907 PWs)   bands (ev):

   -16.0458 -16.0323 -15.9547 -15.9044 -15.8840 -15.8715 -15.8679 -15.8249
   -15.7420 -15.7298  -0.3634   0.6635   4.7331   6.3136   9.9693  12.7523
    15.6638  15.8910

          k = 0.0000-1.0063 0.0000 (  3892 PWs)   bands (ev):

   -16.0315 -16.0315 -15.9564 -15.9564 -15.8741 -15.8741 -15.8240 -15.8240
   -15.7423 -15.7423   0.0974   0.0974   5.8993   5.8993   9.5990   9.5990
    17.8401  17.8401

          k =-0.2516 0.5031-0.0000 (  3905 PWs)   bands (ev):

   -16.0265 -16.0245 -15.9872 -15.9407 -15.9161 -15.8553 -15.8129 -15.7945
   -15.7565 -15.7508  -2.4091   3.4469   6.1139   7.2651  11.1215  11.3428
    13.4062  14.1259

          k = 0.6289-0.3774 0.8805 (  3902 PWs)   bands (ev):

   -16.0368 -16.0301 -15.9683 -15.9278 -15.9052 -15.8630 -15.8271 -15.8152
   -15.7468 -15.7406  -1.6509   2.0851   5.4509   6.8213  11.0848  12.1285
    13.5998  14.7366

          k = 0.5031-0.2516 0.7547 (  3906 PWs)   bands (ev):

   -16.0413 -16.0313 -15.9598 -15.9181 -15.9065 -15.8587 -15.8411 -15.8223
   -15.7447 -15.7354  -1.1343   1.3225   5.2684   6.6226  11.0072  12.1855
    14.3697  15.4723

          k = 0.7547-0.2516 1.0063 (  3924 PWs)   bands (ev):

   -16.0347 -16.0339 -15.9707 -15.9118 -15.8997 -15.8767 -15.8395 -15.8082
   -15.7423 -15.7418  -1.3007   1.7669   5.5035   6.0798  10.6668  11.2630
    14.2017  16.3645

          k = 0.6289-0.1258 0.8805 (  3906 PWs)   bands (ev):

   -16.0442 -16.0362 -15.9485 -15.9017 -15.8953 -15.8738 -15.8578 -15.8295
   -15.7390 -15.7315  -0.5759   0.9110   4.9121   5.9006  11.0362  12.8483
    13.7696  15.5923

          k = 0.5031-0.0000 0.7547 (  3910 PWs)   bands (ev):

   -16.0446 -16.0357 -15.9491 -15.9078 -15.8855 -15.8813 -15.8537 -15.8292
   -15.7397 -15.7317  -0.8840   1.2558   4.7717   6.2370  11.3500  13.1650
    13.6419  15.2960

          k =-0.2516-1.0063-0.0000 (  3908 PWs)   bands (ev):

   -16.0379 -16.0379 -15.9403 -15.9403 -15.8755 -15.8755 -15.8379 -15.8379
   -15.7368 -15.7368   0.1375   0.1375   5.4722   5.4722  10.7182  10.7182
    16.0884  16.0884

          k =-0.5031-1.0063 0.0000 (  3884 PWs)   bands (ev):

   -16.0431 -16.0431 -15.9206 -15.9206 -15.8801 -15.8801 -15.8525 -15.8525
   -15.7322 -15.7322   0.1794   0.1794   5.1373   5.1373  12.8843  12.8843
    13.4602  13.4602

     the Fermi energy is     8.7332 ev

!    total energy              =    -357.28488650 Ry
     estimated scf accuracy    <          2.3E-09 Ry
     smearing contrib. (-TS)   =      -0.00008031 Ry
     internal energy E=F+TS    =    -357.28480619 Ry

     The total energy is F=E-TS. E is the sum of the following terms:
     one-electron contribution =    -189.09143032 Ry
     hartree contribution      =     112.94008446 Ry
     xc contribution           =     -87.26381462 Ry
     ewald contribution        =    -193.86964571 Ry

     convergence has been achieved in   8 iterations

     Forces acting on atoms (cartesian axes, Ry/au):

     atom    1 type  1   force =    -0.00000000   -0.00000000    0.00000000
     atom    2 type  1   force =     0.00000000    0.00000000   -0.00000000
     The non-local contrib.  to forces
     atom    1 type  1   force =    -0.00000000    0.00000000   -0.00000000
     atom    2 type  1   force =    -0.00000000    0.00000000    0.00000000
     The ionic contribution  to forces
     atom    1 type  1   force =    -0.00000000   -0.00000000   -0.00000000
     atom    2 type  1   force =     0.00000000    0.00000000    0.00000000
     The local contribution  to forces
     atom    1 type  1   force =    -0.00000000    0.00000000   -0.00000000
     atom    2 type  1   force =     0.00000000    0.00000000    0.00000000
     The core correction contribution to forces
     atom    1 type  1   force =     0.00000000   -0.00000000    0.00000000
     atom    2 type  1   force =    -0.00000000    0.00000000    0.00000000
     The Hubbard contrib.    to forces
     atom    1 type  1   force =     0.00000000    0.00000000    0.00000000
     atom    2 type  1   force =     0.00000000    0.00000000    0.00000000
     The SCF correction term to forces
     atom    1 type  1   force =    -0.00000000    0.00000000    0.00000000
     atom    2 type  1   force =    -0.00000000   -0.00000000   -0.00000000

     Total force =     0.000000     Total SCF correction =     0.000000


     Computing stress (Cartesian axis) and pressure

          total   stress  (Ry/bohr**3)                   (kbar)     P=        0.45
   0.00000308  -0.00000000  -0.00000000            0.45       -0.00       -0.00
  -0.00000000   0.00000308   0.00000000           -0.00        0.45        0.00
   0.00000000   0.00000000   0.00000308            0.00        0.00        0.45


     Writing all to output data dir ./Ge_out/Ge_scf.save/

     init_run     :      4.69s CPU      4.86s WALL (       2 calls)
     electrons    :    160.04s CPU    169.44s WALL (       5 calls)
     update_pot   :      3.49s CPU      3.55s WALL (       3 calls)
     forces       :      3.81s CPU      3.88s WALL (       5 calls)
     stress       :     16.32s CPU     16.65s WALL (       5 calls)

     Called by init_run:
     wfcinit      :      2.36s CPU      2.48s WALL (       2 calls)
     potinit      :      0.92s CPU      0.94s WALL (       2 calls)
     hinit0       :      1.23s CPU      1.26s WALL (       2 calls)

     Called by electrons:
     c_bands      :    136.08s CPU    143.99s WALL (      43 calls)
     sum_band     :     22.36s CPU     23.58s WALL (      43 calls)
     v_of_rho     :      1.48s CPU      1.58s WALL (      47 calls)
     mix_rho      :      0.22s CPU      0.23s WALL (      43 calls)

     Called by c_bands:
     init_us_2    :      2.07s CPU      2.29s WALL (    2842 calls)
     init_us_2:cp :      2.06s CPU      2.28s WALL (    2842 calls)
     cegterg      :    129.64s CPU    136.17s WALL (    1247 calls)

     Called by *egterg:
     cdiaghg      :      3.68s CPU      3.75s WALL (    4018 calls)
     h_psi        :    115.65s CPU    121.92s WALL (    4192 calls)
     g_psi        :      0.63s CPU      0.65s WALL (    2887 calls)

     Called by h_psi:
     h_psi:calbec :      3.31s CPU      3.55s WALL (    4192 calls)
     vloc_psi     :    108.77s CPU    114.69s WALL (    4192 calls)
     add_vuspsi   :      3.12s CPU      3.21s WALL (    4192 calls)

     General routines
     calbec       :      3.95s CPU      4.21s WALL (    4917 calls)
     fft          :      1.01s CPU      1.10s WALL (     594 calls)
     ffts         :      0.05s CPU      0.05s WALL (      43 calls)
     fftw         :    114.84s CPU    121.09s WALL (  142496 calls)

     Parallel routines

     PWSCF        :   3m 8.61s CPU   3m19.33s WALL


   This run was terminated on:   9: 0:41  26Apr2025            

=------------------------------------------------------------------------------=
   JOB DONE.
=------------------------------------------------------------------------------=
