
     Program PWSCF v.7.2 starts on 26Apr2025 at 19: 3: 8 

     This program is part of the open-source Quantum ESPRESSO suite
     for quantum simulation of materials; please cite
         "P. Giannozzi et al., J. Phys.:Condens. Matter 21 395502 (2009);
         "P. Giannozzi et al., J. Phys.:Condens. Matter 29 465901 (2017);
         "P. Giannozzi et al., J. Chem. Phys. 152 154105 (2020);
          URL http://www.quantum-espresso.org", 
     in publications or presentations arising from this work. More details at
     http://www.quantum-espresso.org/quote

     Parallel version (MPI), running on    16 processors

     MPI processes distributed on     1 nodes
     200731 MiB available memory on the printing compute node when the environment starts

     Waiting for input...
     Reading input from standard input

     Current dimensions of program PWSCF are:
     Max number of different atomic species (ntypx) = 10
     Max number of k-points (npk) =  40000
     Max angular momentum in pseudopotentials (lmaxx) =  4

     File ./Ge_out/Ge_scf.update deleted, as requested

     File ./Ge_out/Ge_scf.bfgs deleted, as requested

     K-points division:     npool     =       2
     R & G space division:  proc/nbgrp/npool/nimage =       8
     Subspace diagonalization in iterative solution of the eigenvalue problem:
     a serial algorithm will be used


     Parallelization info
     --------------------
     sticks:   dense  smooth     PW     G-vecs:    dense   smooth      PW
     Min         174     174     58                 3149     3149     604
     Max         175     175     59                 3152     3152     605
     Sum        1397    1397    471                25199    25199    4837

     Using Slab Decomposition



     bravais-lattice index     =            7
     lattice parameter (alat)  =       9.8266  a.u.
     unit-cell volume          =     260.9395 (a.u.)^3
     number of atoms/cell      =            2
     number of atomic types    =            1
     number of electrons       =        28.00
     number of Kohn-Sham states=           18
     kinetic-energy cutoff     =      80.0000  Ry
     charge density cutoff     =     320.0000  Ry
     scf convergence threshold =      1.0E-06
     mixing beta               =       0.4000
     number of iterations used =            8  plain     mixing
     energy convergence thresh.=      1.0E-04
     force convergence thresh. =      1.0E-03
     press convergence thresh. =      5.0E-01
     Exchange-correlation= PBE
                           (   1   4   3   4   0   0   0)
     nstep                     =           50


     celldm(1)=   9.826580  celldm(2)=   0.000000  celldm(3)=   0.550000
     celldm(4)=   0.000000  celldm(5)=   0.000000  celldm(6)=   0.000000

     crystal axes: (cart. coord. in units of alat)
               a(1) = (   0.500000  -0.500000   0.275000 )  
               a(2) = (   0.500000   0.500000   0.275000 )  
               a(3) = (  -0.500000  -0.500000   0.275000 )  

     reciprocal axes: (cart. coord. in units 2 pi/alat)
               b(1) = (  1.000000 -1.000000  0.000000 )  
               b(2) = (  0.000000  1.000000  1.818182 )  
               b(3) = ( -1.000000  0.000000  1.818182 )  


     PseudoPot. # 1 for Ge read from file:
     ./Ge.upf
     MD5 check sum: 087fa14d6c89b52166990835c3b338da
     Pseudo is Norm-conserving + core correction, Zval = 14.0
     Generated using ONCVPSP code by D. R. Hamann
     Using radial grid of 1560 points,  6 beta functions with: 
                l(1) =   0
                l(2) =   0
                l(3) =   1
                l(4) =   1
                l(5) =   2
                l(6) =   2

     atomic species   valence    mass     pseudopotential
        Ge            14.00    72.63000     Ge( 1.00)

     16 Sym. Ops., with inversion, found ( 8 have fractional translation)



   Cartesian axes

     site n.     atom                  positions (alat units)
         1           Ge  tau(   1) = (   0.0000000   0.0000000   0.0000000  )
         2           Ge  tau(   2) = (   0.0000000   0.5000000   0.1375000  )

     number of k points=    30  Gaussian smearing, width (Ry)=  0.0100
                       cart. coord. in units 2pi/alat
        k(    1) = (   0.0000000   0.0000000   0.0000000), wk =   0.0092593
        k(    2) = (  -0.1666667   0.0000000   0.3030303), wk =   0.0740741
        k(    3) = (  -0.3333333   0.0000000   0.6060606), wk =   0.0740741
        k(    4) = (   0.5000000   0.0000000  -0.9090909), wk =   0.0370370
        k(    5) = (  -0.1666667   0.1666667   0.6060606), wk =   0.0740741
        k(    6) = (  -0.3333333   0.1666667   0.9090909), wk =   0.1481481
        k(    7) = (   0.5000000   0.1666667  -0.6060606), wk =   0.1481481
        k(    8) = (   0.3333333   0.1666667  -0.3030303), wk =   0.1481481
        k(    9) = (   0.1666667   0.1666667   0.0000000), wk =   0.0370370
        k(   10) = (  -0.3333333   0.3333333   1.2121212), wk =   0.0740741
        k(   11) = (   0.5000000   0.3333333  -0.3030303), wk =   0.1481481
        k(   12) = (   0.3333333   0.3333333  -0.0000000), wk =   0.0370370
        k(   13) = (   0.5000000  -0.5000000  -1.8181818), wk =   0.0185185
        k(   14) = (   0.0000000   0.0000000   0.6060606), wk =   0.0185185
        k(   15) = (  -0.1666667   0.0000000   0.9090909), wk =   0.0740741
        k(   16) = (   0.6666667   0.0000000  -0.6060606), wk =   0.0740741
        k(   17) = (   0.5000000   0.0000000  -0.3030303), wk =   0.0740741
        k(   18) = (   0.3333333   0.0000000   0.0000000), wk =   0.0370370
        k(   19) = (  -0.1666667   0.1666667   1.2121212), wk =   0.0740741
        k(   20) = (   0.6666667   0.1666667  -0.3030303), wk =   0.1481481
        k(   21) = (   0.5000000   0.1666667  -0.0000000), wk =   0.0740741
        k(   22) = (   0.6666667  -0.6666667  -1.8181818), wk =   0.0370370
        k(   23) = (   0.3333333  -0.6666667  -1.2121212), wk =   0.0740741
        k(   24) = (   0.5000000  -0.5000000  -1.2121212), wk =   0.0370370
        k(   25) = (   0.3333333  -0.5000000  -0.9090909), wk =   0.0740741
        k(   26) = (   0.0000000   0.0000000   1.2121212), wk =   0.0185185
        k(   27) = (   0.8333333   0.0000000  -0.3030303), wk =   0.0740741
        k(   28) = (   0.6666667   0.0000000  -0.0000000), wk =   0.0370370
        k(   29) = (   0.8333333  -0.8333333  -1.8181818), wk =   0.0370370
        k(   30) = (   0.0000000   0.0000000  -1.8181818), wk =   0.0092593

     Dense  grid:    25199 G-vectors     FFT dimensions: (  48,  48,  48)

     Estimated max dynamical RAM per process >       7.58 MB

     Estimated total dynamical RAM >     115.15 MB

     Initial potential from superposition of free atoms

     starting charge      27.9984, renormalised to      28.0000
     Starting wfcs are   18 randomized atomic wfcs

     total cpu time spent up to now is        1.5 secs

     Self-consistent Calculation

     iteration #  1     ecut=    80.00 Ry     beta= 0.40
     Davidson diagonalization with overlap
     ethr =  1.00E-02,  avg # of iterations =  3.4

     Threshold (ethr) on eigenvalues was too large:
     Diagonalizing with lowered threshold

     Davidson diagonalization with overlap
     ethr =  2.83E-05,  avg # of iterations =  5.1

     total cpu time spent up to now is        4.4 secs

     total energy              =    -357.25062232 Ry
     estimated scf accuracy    <       0.00810358 Ry

     iteration #  2     ecut=    80.00 Ry     beta= 0.40
     Davidson diagonalization with overlap
     ethr =  2.89E-05,  avg # of iterations =  1.0

     total cpu time spent up to now is        5.4 secs

     total energy              =    -357.25071821 Ry
     estimated scf accuracy    <       0.00220467 Ry

     iteration #  3     ecut=    80.00 Ry     beta= 0.40
     Davidson diagonalization with overlap
     ethr =  7.87E-06,  avg # of iterations =  2.0

     total cpu time spent up to now is        6.6 secs

     total energy              =    -357.25095690 Ry
     estimated scf accuracy    <       0.00015364 Ry

     iteration #  4     ecut=    80.00 Ry     beta= 0.40
     Davidson diagonalization with overlap
     ethr =  5.49E-07,  avg # of iterations =  2.2

     total cpu time spent up to now is        7.8 secs

     total energy              =    -357.25097255 Ry
     estimated scf accuracy    <       0.00001486 Ry

     iteration #  5     ecut=    80.00 Ry     beta= 0.40
     Davidson diagonalization with overlap
     ethr =  5.31E-08,  avg # of iterations =  2.0

     total cpu time spent up to now is        9.1 secs

     End of self-consistent calculation

          k = 0.0000 0.0000 0.0000 (  3147 PWs)   bands (ev):

   -13.0629 -13.0335 -13.0042 -12.9968 -12.9179 -12.9179 -12.9116 -12.9116
   -12.8413 -12.7777  -1.2639   7.6199   9.5264   9.5264  15.1107  19.1230
    19.1230  19.2666

          k =-0.1667 0.0000 0.3030 (  3156 PWs)   bands (ev):

   -13.0542 -13.0068 -12.9854 -12.9744 -12.9358 -12.9261 -12.9166 -12.9152
   -12.8470 -12.7881  -0.6183   7.0862   9.5377  11.2136  15.2524  16.0298
    16.2673  17.7900

          k =-0.3333 0.0000 0.6061 (  3152 PWs)   bands (ev):

   -13.0362 -12.9766 -12.9765 -12.9708 -12.9475 -12.9337 -12.9034 -12.8819
   -12.8615 -12.8101   1.2885   6.9274   9.8973  10.1286  12.0035  14.5313
    15.6685  16.2934

          k = 0.5000 0.0000-0.9091 (  3152 PWs)   bands (ev):

   -13.0269 -12.9956 -12.9875 -12.9646 -12.9432 -12.9333 -12.8725 -12.8637
   -12.8613 -12.8239   3.6419   5.4068   9.0189   9.8155  10.3583  14.2049
    15.1326  17.0003

          k =-0.1667 0.1667 0.6061 (  3157 PWs)   bands (ev):

   -13.0426 -12.9833 -12.9706 -12.9513 -12.9466 -12.9407 -12.9244 -12.8830
   -12.8561 -12.8007   0.9982   7.4591  10.4377  11.2134  12.1681  12.2303
    16.1563  16.2977

          k =-0.3333 0.1667 0.9091 (  3155 PWs)   bands (ev):

   -13.0344 -12.9952 -12.9776 -12.9535 -12.9520 -12.9281 -12.8897 -12.8723
   -12.8507 -12.8190   3.5319   5.9325   7.8033   9.7865  11.6453  13.5902
    15.3112  17.4477

          k = 0.5000 0.1667-0.6061 (  3146 PWs)   bands (ev):

   -13.0239 -12.9916 -12.9863 -12.9554 -12.9444 -12.9253 -12.8853 -12.8777
   -12.8757 -12.8308   2.1484   5.3156   8.9070  10.3872  12.1105  14.0728
    16.6713  16.9734

          k = 0.3333 0.1667-0.3030 (  3157 PWs)   bands (ev):

   -13.0347 -13.0128 -12.9934 -12.9661 -12.9370 -12.9201 -12.9065 -12.9032
   -12.8618 -12.8108  -0.0229   5.0630   9.6707  12.8549  14.0309  15.4636
    16.1981  18.2188

          k = 0.1667 0.1667 0.0000 (  3162 PWs)   bands (ev):

   -13.0505 -13.0361 -13.0121 -12.9853 -12.9232 -12.9109 -12.9079 -12.9059
   -12.8494 -12.7917  -0.9648   5.8140   9.8514  10.7160  16.5839  16.9699
    17.7952  19.2097

          k =-0.3333 0.3333 1.2121 (  3148 PWs)   bands (ev):

   -13.0209 -12.9965 -12.9789 -12.9684 -12.9281 -12.9041 -12.8947 -12.8917
   -12.8722 -12.8400   3.4308   3.6512   8.5733  11.1237  12.0241  12.7181
    17.9148  18.1340

          k = 0.5000 0.3333-0.3030 (  3156 PWs)   bands (ev):

   -13.0172 -13.0099 -12.9995 -12.9642 -12.9331 -12.9092 -12.8991 -12.8885
   -12.8781 -12.8447   1.1583   2.8922  10.7555  12.3873  14.0561  14.6402
    15.6761  16.8010

          k = 0.3333 0.3333-0.0000 (  3168 PWs)   bands (ev):

   -13.0396 -13.0269 -13.0172 -12.9551 -12.9413 -12.9033 -12.8987 -12.8893
   -12.8712 -12.8260  -0.0701   3.4190  10.8146  12.0605  14.4834  15.5888
    18.8297  19.0231

          k = 0.5000-0.5000-1.8182 (  3168 PWs)   bands (ev):

   -13.0373 -13.0373 -12.9751 -12.9751 -12.9189 -12.9189 -12.8895 -12.8895
   -12.8624 -12.8624   1.4065   1.4065  12.3805  12.3805  13.6243  13.6243
    18.7254  18.7254

          k = 0.0000 0.0000 0.6061 (  3156 PWs)   bands (ev):

   -13.0446 -12.9742 -12.9674 -12.9674 -12.9490 -12.9324 -12.9324 -12.8917
   -12.8491 -12.7924   0.7049   9.1424  10.8682  10.8682  11.6410  11.8459
    15.7087  15.7087

          k =-0.1667 0.0000 0.9091 (  3152 PWs)   bands (ev):

   -13.0294 -12.9831 -12.9750 -12.9529 -12.9490 -12.9420 -12.9188 -12.8624
   -12.8512 -12.8097   3.0884   6.9295   8.2980  10.1409  10.9383  12.0501
    15.2048  16.5154

          k = 0.6667 0.0000-0.6061 (  3146 PWs)   bands (ev):

   -13.0163 -12.9847 -12.9704 -12.9686 -12.9351 -12.9284 -12.9031 -12.8777
   -12.8746 -12.8368   2.9434   5.1943   8.4761   8.5449  11.2739  13.9384
    17.0626  19.1622

          k = 0.5000 0.0000-0.3030 (  3148 PWs)   bands (ev):

   -13.0207 -13.0075 -13.0036 -12.9554 -12.9279 -12.9182 -12.9178 -12.8887
   -12.8717 -12.8329   0.5644   4.7811   7.8148  11.8816  13.7409  15.8655
    17.3972  19.2570

          k = 0.3333 0.0000 0.0000 (  3166 PWs)   bands (ev):

   -13.0415 -13.0345 -13.0183 -12.9751 -12.9165 -12.9158 -12.9119 -12.8960
   -12.8563 -12.8053  -0.6667   5.3651   8.2076  12.9836  14.4160  17.5793
    18.9204  18.9822

          k =-0.1667 0.1667 1.2121 (  3144 PWs)   bands (ev):

   -13.0166 -12.9864 -12.9505 -12.9503 -12.9430 -12.9326 -12.9255 -12.8785
   -12.8752 -12.8366   3.8901   4.4356   7.8755   9.1992   9.6533  14.3441
    18.6884  18.7788

          k = 0.6667 0.1667-0.3030 (  3158 PWs)   bands (ev):

   -13.0176 -13.0147 -12.9767 -12.9454 -12.9325 -12.9150 -12.9080 -12.8903
   -12.8839 -12.8582   1.7131   3.3172   8.1460   9.7360  13.0581  17.1048
    18.5030  19.7686

          k = 0.5000 0.1667-0.0000 (  3155 PWs)   bands (ev):

   -13.0399 -13.0298 -13.0060 -12.9487 -12.9331 -12.9086 -12.9029 -12.8856
   -12.8752 -12.8378   0.2224   3.5857   8.3709  11.8162  14.9525  18.1189
    18.4895  19.0280

          k = 0.6667-0.6667-1.8182 (  3174 PWs)   bands (ev):

   -13.0378 -13.0378 -12.9660 -12.9660 -12.9169 -12.9169 -12.8932 -12.8932
   -12.8691 -12.8691   1.6759   1.6759   9.7514   9.7514  16.6215  16.6215
    18.4113  18.4113

          k = 0.3333-0.6667-1.2121 (  3151 PWs)   bands (ev):

   -13.0318 -12.9948 -12.9728 -12.9713 -12.9437 -12.9079 -12.8999 -12.8761
   -12.8737 -12.8248   1.8717   5.2205   9.9809  10.3652  13.2422  13.7500
    16.5559  16.6714

          k = 0.5000-0.5000-1.2121 (  3154 PWs)   bands (ev):

   -13.0093 -13.0093 -12.9859 -12.9859 -12.9099 -12.9099 -12.8837 -12.8837
   -12.8590 -12.8590   3.3007   3.3007   9.9236   9.9236  14.7963  14.7963
    15.3033  15.3033

          k = 0.3333-0.5000-0.9091 (  3142 PWs)   bands (ev):

   -13.0311 -13.0049 -12.9914 -12.9742 -12.9280 -12.8932 -12.8907 -12.8613
   -12.8609 -12.8360   4.1747   5.3271   7.3239   8.3517  13.8316  15.6417
    16.4704  16.5767

          k = 0.0000 0.0000 1.2121 (  3140 PWs)   bands (ev):

   -13.0074 -12.9637 -12.9637 -12.9637 -12.9358 -12.9341 -12.9341 -12.8795
   -12.8739 -12.8392   4.1933   5.0660   8.0213   8.0213   8.3216  15.6626
    18.5230  18.5230

          k = 0.8333 0.0000-0.3030 (  3142 PWs)   bands (ev):

   -13.0165 -13.0144 -12.9463 -12.9349 -12.9266 -12.9197 -12.9161 -12.9027
   -12.8903 -12.8738   2.7173   3.6032   6.7145   7.5850  12.4276  18.8390
    21.0199  21.2001

          k = 0.6667 0.0000-0.0000 (  3144 PWs)   bands (ev):

   -13.0391 -13.0347 -12.9779 -12.9319 -12.9187 -12.9131 -12.9120 -12.8868
   -12.8850 -12.8664   1.0819   3.5902   6.6429   9.1908  17.4879  17.8419
    18.6502  21.1989

          k = 0.8333-0.8333-1.8182 (  3150 PWs)   bands (ev):

   -13.0377 -13.0377 -12.9432 -12.9432 -12.9127 -12.9127 -12.9009 -12.9009
   -12.8878 -12.8878   2.4042   2.4042   7.2577   7.2577  17.5717  17.5717
    20.5329  20.5329

          k = 0.0000 0.0000-1.8182 (  3108 PWs)   bands (ev):

   -13.0373 -13.0373 -12.9159 -12.9159 -12.9146 -12.9146 -12.9087 -12.9087
   -12.9053 -12.9053   2.9984   2.9984   6.0668   6.0668  17.3801  17.3801
    22.3827  22.3827

     the Fermi energy is    11.8711 ev

!    total energy              =    -357.25097468 Ry
     estimated scf accuracy    <       0.00000028 Ry
     smearing contrib. (-TS)   =      -0.00067836 Ry
     internal energy E=F+TS    =    -357.25029632 Ry

     The total energy is F=E-TS. E is the sum of the following terms:
     one-electron contribution =    -141.09867203 Ry
     hartree contribution      =      92.01238094 Ry
     xc contribution           =     -87.25726920 Ry
     ewald contribution        =    -220.90673603 Ry

     convergence has been achieved in   5 iterations

     Forces acting on atoms (cartesian axes, Ry/au):

     atom    1 type  1   force =     0.00000000    0.00000000    0.00000000
     atom    2 type  1   force =     0.00000000    0.00000000    0.00000000
     The non-local contrib.  to forces
     atom    1 type  1   force =     0.00000000    0.00000000    0.00000000
     atom    2 type  1   force =     0.00000000    0.00000000    0.00000000
     The ionic contribution  to forces
     atom    1 type  1   force =    -0.00000000   -0.00000000   -0.00000000
     atom    2 type  1   force =     0.00000000    0.00000000    0.00000000
     The local contribution  to forces
     atom    1 type  1   force =     0.00000000    0.00000000   -0.00000000
     atom    2 type  1   force =    -0.00000000    0.00000000    0.00000000
     The core correction contribution to forces
     atom    1 type  1   force =    -0.00000000   -0.00000000   -0.00000000
     atom    2 type  1   force =     0.00000000    0.00000000   -0.00000000
     The Hubbard contrib.    to forces
     atom    1 type  1   force =     0.00000000    0.00000000    0.00000000
     atom    2 type  1   force =     0.00000000    0.00000000    0.00000000
     The SCF correction term to forces
     atom    1 type  1   force =    -0.00000000    0.00000000    0.00000000
     atom    2 type  1   force =     0.00000000   -0.00000000   -0.00000000

     Total force =     0.000000     Total SCF correction =     0.000000


     Computing stress (Cartesian axis) and pressure

          total   stress  (Ry/bohr**3)                   (kbar)     P=       -2.72
   0.00004628   0.00000000   0.00000000            6.81        0.00        0.00
   0.00000000   0.00004628   0.00000000            0.00        6.81        0.00
   0.00000000   0.00000000  -0.00014801            0.00        0.00      -21.77


     BFGS Geometry Optimization
     Energy error            =      0.0E+00 Ry
     Gradient error          =      0.0E+00 Ry/Bohr
     Cell gradient error     =      2.2E+01 kbar

     number of scf cycles    =   1
     number of bfgs steps    =   0

     enthalpy           new  =    -357.2509746801 Ry

     new trust radius        =       0.0119543216 bohr
ibrav =      7
 celldm(1) =      9.83794879
 celldm(3) =      0.54733166
Input lattice vectors:
     0.50057847    -0.50057847     0.27398245
     0.50057847     0.50057847     0.27398245
    -0.50057847    -0.50057847     0.27398245
New lattice vectors in INITIAL alat:
     0.50057847    -0.50057847     0.27398245
     0.50057847     0.50057847     0.27398245
    -0.50057847    -0.50057847     0.27398245
New lattice vectors in NEW alat (for information only):
     0.50000000    -0.50000000     0.27366583
     0.50000000     0.50000000     0.27366583
    -0.50000000    -0.50000000     0.27366583
Discrepancy in bohr =     0.000000    0.000000    0.000000

Atomic positions rescaled with new alat:
Ge            0.0000000000        0.0000000000        0.0000000000
Ge            0.0000000000        0.5000000000        0.1368329149
     new conv_thr            =       0.0000010000 Ry

     new unit-cell volume =    260.57590 a.u.^3 (    38.61336 Ang^3 )
     density =      6.24680 g/cm^3

CELL_PARAMETERS (alat=  9.82658000)
   0.500578471  -0.500578471   0.273982445
   0.500578471   0.500578471   0.273982445
  -0.500578471  -0.500578471   0.273982445

ATOMIC_POSITIONS (alat)
Ge            0.0000000000        0.0000000000        0.0000000000
Ge            0.0000000000        0.5005784713        0.1369912227



     Writing config-only to output data dir ./Ge_out/Ge_scf.save/
     NEW-OLD atomic charge density approx. for the potential
     extrapolated charge   27.96093, renormalised to   28.00000

     total cpu time spent up to now is       10.9 secs

     Self-consistent Calculation

     iteration #  1     ecut=    80.00 Ry     beta= 0.40
     Davidson diagonalization with overlap
     ethr =  1.00E-06,  avg # of iterations =  4.9

     total cpu time spent up to now is       12.7 secs

     total energy              =    -357.25096448 Ry
     estimated scf accuracy    <       0.00008212 Ry

     iteration #  2     ecut=    80.00 Ry     beta= 0.40
     Davidson diagonalization with overlap
     ethr =  2.93E-07,  avg # of iterations =  3.2

     total cpu time spent up to now is       14.4 secs

     total energy              =    -357.25112603 Ry
     estimated scf accuracy    <       0.00002940 Ry

     iteration #  3     ecut=    80.00 Ry     beta= 0.40
     Davidson diagonalization with overlap
     ethr =  1.05E-07,  avg # of iterations =  1.0

     total cpu time spent up to now is       15.3 secs

     total energy              =    -357.25111745 Ry
     estimated scf accuracy    <       0.00001212 Ry

     iteration #  4     ecut=    80.00 Ry     beta= 0.40
     Davidson diagonalization with overlap
     ethr =  4.33E-08,  avg # of iterations =  2.0

     total cpu time spent up to now is       16.7 secs

     End of self-consistent calculation

          k = 0.0000 0.0000 0.0000 (  3147 PWs)   bands (ev):

   -13.0478 -13.0204 -12.9911 -12.9819 -12.9017 -12.9017 -12.8956 -12.8956
   -12.8273 -12.7638  -1.2538   7.5894   9.5234   9.5234  15.1106  19.1130
    19.1130  19.3818

          k =-0.1665 0.0000 0.3042 (  3156 PWs)   bands (ev):

   -13.0390 -12.9925 -12.9705 -12.9598 -12.9202 -12.9108 -12.9008 -12.8997
   -12.8330 -12.7742  -0.6042   7.0721   9.5427  11.2071  15.3315  16.1042
    16.2711  17.7923

          k =-0.3329 0.0000 0.6083 (  3152 PWs)   bands (ev):

   -13.0208 -12.9617 -12.9610 -12.9552 -12.9328 -12.9186 -12.8882 -12.8661
   -12.8473 -12.7959   1.3155   6.9474   9.9225  10.1616  12.0444  14.5393
    15.7188  16.2915

          k = 0.4994 0.0000-0.9125 (  3152 PWs)   bands (ev):

   -13.0116 -12.9804 -12.9731 -12.9489 -12.9285 -12.9186 -12.8581 -12.8474
   -12.8455 -12.8091   3.6958   5.4433   9.0347   9.8158  10.4025  14.2338
    15.1523  17.0162

          k =-0.1665 0.1665 0.6083 (  3157 PWs)   bands (ev):

   -13.0272 -12.9679 -12.9556 -12.9361 -12.9314 -12.9259 -12.9090 -12.8671
   -12.8419 -12.7866   1.0258   7.4757  10.4809  11.2490  12.1897  12.2403
    16.1927  16.3333

          k =-0.3329 0.1665 0.9125 (  3155 PWs)   bands (ev):

   -13.0192 -12.9803 -12.9626 -12.9385 -12.9371 -12.9134 -12.8739 -12.8580
   -12.8340 -12.8045   3.5847   5.9721   7.8245   9.7937  11.6765  13.6163
    15.3319  17.4555

          k = 0.4994 0.1665-0.6083 (  3146 PWs)   bands (ev):

   -13.0086 -12.9760 -12.9708 -12.9402 -12.9293 -12.9106 -12.8698 -12.8631
   -12.8610 -12.8166   2.1738   5.3365   8.9549  10.4032  12.1489  14.0786
    16.6674  17.0161

          k = 0.3329 0.1665-0.3042 (  3157 PWs)   bands (ev):

   -13.0193 -12.9982 -12.9785 -12.9513 -12.9213 -12.9049 -12.8913 -12.8883
   -12.8476 -12.7968  -0.0104   5.0596   9.6745  12.8485  14.0884  15.4976
    16.2481  18.2244

          k = 0.1665 0.1665 0.0000 (  3162 PWs)   bands (ev):

   -13.0353 -13.0228 -12.9987 -12.9704 -12.9070 -12.8950 -12.8921 -12.8900
   -12.8353 -12.7778  -0.9555   5.8003   9.8481  10.7003  16.5787  16.9777
    17.7767  19.3299

          k =-0.3329 0.3329 1.2166 (  3148 PWs)   bands (ev):

   -13.0054 -12.9811 -12.9634 -12.9528 -12.9133 -12.8890 -12.8800 -12.8772
   -12.8570 -12.8257   3.4571   3.6706   8.6265  11.1484  12.0270  12.7498
    17.9131  18.1424

          k = 0.4994 0.3329-0.3042 (  3156 PWs)   bands (ev):

   -13.0022 -12.9948 -12.9839 -12.9484 -12.9184 -12.8943 -12.8842 -12.8741
   -12.8635 -12.8305   1.1677   2.8966  10.7616  12.4020  14.0781  14.6809
    15.7146  16.8035

          k = 0.3329 0.3329-0.0000 (  3168 PWs)   bands (ev):

   -13.0259 -13.0131 -13.0017 -12.9404 -12.9250 -12.8879 -12.8833 -12.8740
   -12.8570 -12.8120  -0.0632   3.4153  10.8105  12.0420  14.4810  15.5675
    18.9503  19.1325

          k = 0.4994-0.4994-1.8249 (  3168 PWs)   bands (ev):

   -13.0234 -13.0234 -12.9592 -12.9592 -12.9042 -12.9042 -12.8744 -12.8744
   -12.8478 -12.8478   1.4092   1.4092  12.3760  12.3760  13.6041  13.6041
    18.8430  18.8430

          k = 0.0000 0.0000 0.6083 (  3156 PWs)   bands (ev):

   -13.0293 -12.9591 -12.9527 -12.9527 -12.9329 -12.9173 -12.9173 -12.8754
   -12.8350 -12.7783   0.7331   9.1524  10.8967  10.8967  11.6795  11.8628
    15.7493  15.7493

          k =-0.1665 0.0000 0.9125 (  3152 PWs)   bands (ev):

   -13.0141 -12.9688 -12.9602 -12.9380 -12.9341 -12.9273 -12.9025 -12.8481
   -12.8340 -12.7951   3.1408   6.9636   8.3094  10.1856  10.9593  12.0581
    15.2286  16.5271

          k = 0.6659 0.0000-0.6083 (  3146 PWs)   bands (ev):

   -13.0009 -12.9692 -12.9556 -12.9529 -12.9200 -12.9137 -12.8879 -12.8634
   -12.8590 -12.8224   2.9684   5.2166   8.5146   8.5704  11.2817  13.9736
    17.1126  19.1617

          k = 0.4994 0.0000-0.3042 (  3148 PWs)   bands (ev):

   -13.0060 -12.9923 -12.9885 -12.9404 -12.9126 -12.9028 -12.9025 -12.8739
   -12.8575 -12.8188   0.5753   4.7760   7.8247  11.8990  13.7990  15.8669
    17.4548  19.2977

          k = 0.3329 0.0000 0.0000 (  3166 PWs)   bands (ev):

   -13.0272 -13.0202 -13.0047 -12.9603 -12.9003 -12.9001 -12.8960 -12.8806
   -12.8422 -12.7913  -0.6582   5.3509   8.2098  12.9633  14.4075  17.5729
    19.0420  19.0949

          k =-0.1665 0.1665 1.2166 (  3144 PWs)   bands (ev):

   -13.0012 -12.9710 -12.9355 -12.9350 -12.9279 -12.9176 -12.9108 -12.8642
   -12.8594 -12.8221   3.9215   4.4491   7.9212   9.2177   9.6658  14.3798
    18.7262  18.8082

          k = 0.6659 0.1665-0.3042 (  3158 PWs)   bands (ev):

   -13.0030 -12.9997 -12.9611 -12.9298 -12.9177 -12.8999 -12.8930 -12.8760
   -12.8691 -12.8438   1.7207   3.3189   8.1535   9.7415  13.1366  17.1702
    18.4939  19.7650

          k = 0.4994 0.1665-0.0000 (  3155 PWs)   bands (ev):

   -13.0263 -13.0160 -12.9905 -12.9339 -12.9172 -12.8928 -12.8874 -12.8705
   -12.8609 -12.8236   0.2285   3.5802   8.3702  11.8087  14.9330  18.1837
    18.6104  19.0642

          k = 0.6659-0.6659-1.8249 (  3174 PWs)   bands (ev):

   -13.0240 -13.0240 -12.9502 -12.9502 -12.9021 -12.9021 -12.8781 -12.8781
   -12.8545 -12.8545   1.6775   1.6775   9.7469   9.7469  16.6141  16.6141
    18.5206  18.5206

          k = 0.3329-0.6659-1.2166 (  3151 PWs)   bands (ev):

   -13.0164 -12.9792 -12.9574 -12.9555 -12.9289 -12.8934 -12.8846 -12.8617
   -12.8583 -12.8107   1.8976   5.2404  10.0317  10.4114  13.2515  13.7515
    16.5599  16.6780

          k = 0.4994-0.4994-1.2166 (  3154 PWs)   bands (ev):

   -12.9939 -12.9939 -12.9701 -12.9701 -12.8953 -12.8953 -12.8684 -12.8684
   -12.8448 -12.8448   3.3239   3.3239   9.9749   9.9749  14.7977  14.7977
    15.3012  15.3012

          k = 0.3329-0.4994-0.9125 (  3142 PWs)   bands (ev):

   -13.0159 -12.9898 -12.9762 -12.9590 -12.9132 -12.8785 -12.8762 -12.8453
   -12.8451 -12.8214   4.2277   5.3742   7.3435   8.3634  13.8551  15.6611
    16.4878  16.5886

          k = 0.0000 0.0000 1.2166 (  3140 PWs)   bands (ev):

   -12.9920 -12.9491 -12.9491 -12.9478 -12.9209 -12.9190 -12.9190 -12.8633
   -12.8596 -12.8247   4.2297   5.0726   8.0475   8.0475   8.3509  15.6856
    18.5644  18.5644

          k = 0.8324 0.0000-0.3042 (  3142 PWs)   bands (ev):

   -13.0021 -12.9997 -12.9308 -12.9194 -12.9115 -12.9045 -12.9008 -12.8878
   -12.8760 -12.8595   2.7209   3.6008   6.7273   7.5935  12.5136  18.9176
    21.0112  21.2310

          k = 0.6659 0.0000-0.0000 (  3144 PWs)   bands (ev):

   -13.0256 -13.0209 -12.9624 -12.9170 -12.9035 -12.8972 -12.8962 -12.8724
   -12.8700 -12.8519   1.0850   3.5813   6.6499   9.1876  17.5642  17.9689
    18.6717  21.1810

          k = 0.8324-0.8324-1.8249 (  3150 PWs)   bands (ev):

   -13.0241 -13.0241 -12.9277 -12.9277 -12.8976 -12.8976 -12.8858 -12.8858
   -12.8729 -12.8729   2.4019   2.4019   7.2601   7.2601  17.6988  17.6988
    20.5080  20.5080

          k = 0.0000 0.0000-1.8249 (  3108 PWs)   bands (ev):

   -13.0238 -13.0238 -12.9004 -12.9004 -12.8997 -12.8997 -12.8928 -12.8928
   -12.8909 -12.8909   2.9911   2.9911   6.0754   6.0754  17.5111  17.5111
    22.3584  22.3584

     the Fermi energy is    11.8828 ev

!    total energy              =    -357.25112080 Ry
     estimated scf accuracy    <       0.00000022 Ry
     smearing contrib. (-TS)   =      -0.00065572 Ry
     internal energy E=F+TS    =    -357.25046508 Ry

     The total energy is F=E-TS. E is the sum of the following terms:
     one-electron contribution =    -140.92982519 Ry
     hartree contribution      =      91.95173078 Ry
     xc contribution           =     -87.25971845 Ry
     ewald contribution        =    -221.01265222 Ry

     convergence has been achieved in   4 iterations

     Forces acting on atoms (cartesian axes, Ry/au):

     atom    1 type  1   force =     0.00000000    0.00000000   -0.00000000
     atom    2 type  1   force =    -0.00000000    0.00000000    0.00000000
     The non-local contrib.  to forces
     atom    1 type  1   force =     0.00000000    0.00000000    0.00000000
     atom    2 type  1   force =    -0.00000000    0.00000000    0.00000000
     The ionic contribution  to forces
     atom    1 type  1   force =     0.00000000    0.00000000    0.00000000
     atom    2 type  1   force =    -0.00000000   -0.00000000    0.00000000
     The local contribution  to forces
     atom    1 type  1   force =    -0.00000000   -0.00000000    0.00000000
     atom    2 type  1   force =    -0.00000000    0.00000000   -0.00000000
     The core correction contribution to forces
     atom    1 type  1   force =    -0.00000000    0.00000000    0.00000000
     atom    2 type  1   force =     0.00000000    0.00000000   -0.00000000
     The Hubbard contrib.    to forces
     atom    1 type  1   force =     0.00000000    0.00000000    0.00000000
     atom    2 type  1   force =     0.00000000    0.00000000    0.00000000
     The SCF correction term to forces
     atom    1 type  1   force =     0.00000000    0.00000000    0.00000000
     atom    2 type  1   force =     0.00000000    0.00000000   -0.00000000

     Total force =     0.000000     Total SCF correction =     0.000000


     Computing stress (Cartesian axis) and pressure

          total   stress  (Ry/bohr**3)                   (kbar)     P=        1.63
   0.00006298   0.00000000   0.00000000            9.26        0.00        0.00
   0.00000000   0.00006298  -0.00000000            0.00        9.26       -0.00
   0.00000000  -0.00000000  -0.00009263            0.00       -0.00      -13.63

     Energy error            =      1.5E-04 Ry
     Gradient error          =      4.5E-32 Ry/Bohr
     Cell gradient error     =      1.4E+01 kbar

     number of scf cycles    =   2
     number of bfgs steps    =   1

     enthalpy           old  =    -357.2509746801 Ry
     enthalpy           new  =    -357.2511207995 Ry

     CASE: enthalpy          _new < enthalpy          _old

     new trust radius        =       0.0131893916 bohr
ibrav =      7
 celldm(1) =      9.86043184
 celldm(3) =      0.54385274
Input lattice vectors:
     0.50172246    -0.50172246     0.27286314
     0.50172246     0.50172246     0.27286314
    -0.50172246    -0.50172246     0.27286314
New lattice vectors in INITIAL alat:
     0.50172246    -0.50172246     0.27286314
     0.50172246     0.50172246     0.27286314
    -0.50172246    -0.50172246     0.27286314
New lattice vectors in NEW alat (for information only):
     0.50000000    -0.50000000     0.27192637
     0.50000000     0.50000000     0.27192637
    -0.50000000    -0.50000000     0.27192637
Discrepancy in bohr =     0.000000    0.000000    0.000000

Atomic positions rescaled with new alat:
Ge            0.0000000000        0.0000000000       -0.0000000000
Ge            0.0000000000        0.5000000000        0.1359631847
     new conv_thr            =       0.0000000100 Ry

     new unit-cell volume =    260.69886 a.u.^3 (    38.63159 Ang^3 )
     density =      6.24385 g/cm^3

CELL_PARAMETERS (alat=  9.82658000)
   0.501722463  -0.501722463   0.272863135
   0.501722463   0.501722463   0.272863135
  -0.501722463  -0.501722463   0.272863135

ATOMIC_POSITIONS (alat)
Ge            0.0000000000        0.0000000000       -0.0000000000
Ge            0.0000000000        0.5017224628        0.1364315677



     Writing config-only to output data dir ./Ge_out/Ge_scf.save/
     NEW-OLD atomic charge density approx. for the potential
     extrapolated charge   28.01321, renormalised to   28.00000

     total cpu time spent up to now is       18.5 secs

     Self-consistent Calculation

     iteration #  1     ecut=    80.00 Ry     beta= 0.40
     Davidson diagonalization with overlap
     ethr =  1.00E-06,  avg # of iterations =  5.0

     Threshold (ethr) on eigenvalues was too large:
     Diagonalizing with lowered threshold

     Davidson diagonalization with overlap
     ethr =  5.47E-08,  avg # of iterations =  1.3

     total cpu time spent up to now is       21.3 secs

     total energy              =    -357.25124489 Ry
     estimated scf accuracy    <       0.00001568 Ry

     iteration #  2     ecut=    80.00 Ry     beta= 0.40
     Davidson diagonalization with overlap
     ethr =  5.60E-08,  avg # of iterations =  3.1

     total cpu time spent up to now is       22.7 secs

     total energy              =    -357.25126342 Ry
     estimated scf accuracy    <       0.00000352 Ry

     iteration #  3     ecut=    80.00 Ry     beta= 0.40
     Davidson diagonalization with overlap
     ethr =  1.26E-08,  avg # of iterations =  1.0

     total cpu time spent up to now is       23.7 secs

     total energy              =    -357.25126242 Ry
     estimated scf accuracy    <       0.00000146 Ry

     iteration #  4     ecut=    80.00 Ry     beta= 0.40
     Davidson diagonalization with overlap
     ethr =  5.20E-09,  avg # of iterations =  2.0

     total cpu time spent up to now is       25.0 secs

     total energy              =    -357.25126281 Ry
     estimated scf accuracy    <       0.00000008 Ry

     iteration #  5     ecut=    80.00 Ry     beta= 0.40
     Davidson diagonalization with overlap
     ethr =  2.71E-10,  avg # of iterations =  1.0

     total cpu time spent up to now is       26.0 secs

     total energy              =    -357.25126279 Ry
     estimated scf accuracy    <       0.00000003 Ry

     iteration #  6     ecut=    80.00 Ry     beta= 0.40
     Davidson diagonalization with overlap
     ethr =  1.02E-10,  avg # of iterations =  2.1

     total cpu time spent up to now is       27.3 secs

     total energy              =    -357.25126281 Ry
     estimated scf accuracy    <       0.00000003 Ry

     iteration #  7     ecut=    80.00 Ry     beta= 0.40
     Davidson diagonalization with overlap
     ethr =  1.02E-10,  avg # of iterations =  1.0

     total cpu time spent up to now is       28.3 secs

     End of self-consistent calculation

          k = 0.0000 0.0000 0.0000 (  3147 PWs)   bands (ev):

   -13.0534 -13.0291 -12.9999 -12.9881 -12.9068 -12.9068 -12.9011 -12.9011
   -12.8356 -12.7727  -1.2585   7.5056   9.4889   9.4889  15.0780  19.0466
    19.0466  19.4802

          k =-0.1661 0.0000 0.3054 (  3156 PWs)   bands (ev):

   -13.0446 -12.9998 -12.9768 -12.9670 -12.9260 -12.9171 -12.9066 -12.9057
   -12.8412 -12.7830  -0.6049   7.0142   9.5190  11.1607  15.3916  16.1560
    16.2409  17.7468

          k =-0.3322 0.0000 0.6108 (  3152 PWs)   bands (ev):

   -13.0263 -12.9682 -12.9667 -12.9609 -12.9396 -12.9252 -12.8948 -12.8721
   -12.8552 -12.8043   1.3280   6.9342   9.9247  10.1736  12.0582  14.5044
    15.7476  16.2451

          k = 0.4983 0.0000-0.9162 (  3152 PWs)   bands (ev):

   -13.0174 -12.9865 -12.9802 -12.9544 -12.9354 -12.9255 -12.8659 -12.8528
   -12.8514 -12.8165   3.7360   5.4629   9.0174   9.7845  10.4287  14.2380
    15.1346  16.9893

          k =-0.1661 0.1661 0.6108 (  3157 PWs)   bands (ev):

   -13.0326 -12.9739 -12.9619 -12.9424 -12.9378 -12.9327 -12.9151 -12.8729
   -12.8499 -12.7950   1.0396   7.4577  10.5033  11.2609  12.1809  12.2124
    16.2015  16.3402

          k =-0.3322 0.1661 0.9162 (  3155 PWs)   bands (ev):

   -13.0249 -12.9866 -12.9691 -12.9451 -12.9435 -12.9204 -12.8798 -12.8656
   -12.8389 -12.8123   3.6244   5.9920   7.8219   9.7712  11.6809  13.6095
    15.3219  17.4200

          k = 0.4983 0.1661-0.6108 (  3146 PWs)   bands (ev):

   -13.0141 -12.9817 -12.9764 -12.9464 -12.9357 -12.9176 -12.8761 -12.8705
   -12.8682 -12.8248   2.1823   5.3302   8.9879  10.3925  12.1605  14.0454
    16.6142  17.0296

          k = 0.3322 0.1661-0.3054 (  3157 PWs)   bands (ev):

   -13.0249 -13.0050 -12.9850 -12.9578 -12.9268 -12.9112 -12.8978 -12.8952
   -12.8556 -12.8053  -0.0143   5.0232   9.6478  12.7981  14.1192  15.5001
    16.2730  18.1819

          k = 0.1661 0.1661 0.0000 (  3162 PWs)   bands (ev):

   -13.0409 -13.0312 -13.0072 -12.9768 -12.9120 -12.9006 -12.8979 -12.8958
   -12.8436 -12.7866  -0.9618   5.7480   9.8125  10.6422  16.5357  16.9385
    17.7026  19.4357

          k =-0.3322 0.3322 1.2216 (  3148 PWs)   bands (ev):

   -13.0110 -12.9868 -12.9691 -12.9585 -12.9201 -12.8958 -12.8874 -12.8846
   -12.8636 -12.8337   3.4628   3.6683   8.6666  11.1467  11.9963  12.7508
    17.8625  18.1022

          k = 0.4983 0.3322-0.3054 (  3156 PWs)   bands (ev):

   -13.0086 -13.0010 -12.9894 -12.9537 -12.9253 -12.9011 -12.8912 -12.8817
   -12.8709 -12.8385   1.1573   2.8758  10.7344  12.3818  14.0621  14.6954
    15.7206  16.7665

          k = 0.3322 0.3322-0.0000 (  3168 PWs)   bands (ev):

   -13.0339 -13.0210 -13.0071 -12.9471 -12.9300 -12.8941 -12.8896 -12.8805
   -12.8648 -12.8203  -0.0743   3.3828  10.7721  11.9775  14.4363  15.4940
    19.0587  19.2274

          k = 0.4983-0.4983-1.8324 (  3168 PWs)   bands (ev):

   -13.0311 -13.0311 -12.9643 -12.9643 -12.9111 -12.9111 -12.8813 -12.8813
   -12.8553 -12.8553   1.3896   1.3896  12.3337  12.3337  13.5352  13.5352
    18.9486  18.9486

          k = 0.0000 0.0000 0.6108 (  3156 PWs)   bands (ev):

   -13.0347 -12.9653 -12.9595 -12.9595 -12.9381 -12.9239 -12.9239 -12.8806
   -12.8431 -12.7868   0.7483   9.1143  10.9001  10.9001  11.6918  11.8511
    15.7657  15.7657

          k =-0.1661 0.0000 0.9162 (  3152 PWs)   bands (ev):

   -13.0196 -12.9760 -12.9669 -12.9447 -12.9406 -12.9342 -12.9075 -12.8561
   -12.8383 -12.8029   3.1817   6.9734   8.2920  10.2132  10.9521  12.0281
    15.2231  16.5010

          k = 0.6644 0.0000-0.6108 (  3146 PWs)   bands (ev):

   -13.0065 -12.9750 -12.9623 -12.9584 -12.9266 -12.9206 -12.8946 -12.8711
   -12.8652 -12.8303   2.9738   5.2109   8.5375   8.5765  11.2583  13.9747
    17.1373  19.1070

          k = 0.4983 0.0000-0.3054 (  3148 PWs)   bands (ev):

   -13.0126 -12.9982 -12.9948 -12.9467 -12.9189 -12.9096 -12.9083 -12.8812
   -12.8653 -12.8270   0.5681   4.7360   7.8116  11.8820  13.8404  15.8168
    17.4852  19.3015

          k = 0.3322 0.0000 0.0000 (  3166 PWs)   bands (ev):

   -13.0346 -13.0267 -13.0128 -12.9668 -12.9058 -12.9056 -12.9015 -12.8869
   -12.8503 -12.7999  -0.6661   5.2978   8.1858  12.8945  14.3541  17.5267
    19.1513  19.1937

          k =-0.1661 0.1661 1.2216 (  3144 PWs)   bands (ev):

   -13.0068 -12.9769 -12.9420 -12.9411 -12.9343 -12.9242 -12.9177 -12.8720
   -12.8653 -12.8299   3.9306   4.4367   7.9542   9.2119   9.6529  14.3810
    18.7287  18.7985

          k = 0.6644 0.1661-0.3054 (  3158 PWs)   bands (ev):

   -13.0098 -13.0060 -12.9668 -12.9355 -12.9244 -12.9065 -12.8997 -12.8836
   -12.8764 -12.8517   1.7064   3.2925   8.1347   9.7157  13.2044  17.2020
    18.4351  19.7055

          k = 0.4983 0.1661-0.0000 (  3155 PWs)   bands (ev):

   -13.0343 -13.0238 -12.9961 -12.9406 -12.9226 -12.8987 -12.8936 -12.8773
   -12.8686 -12.8318   0.2155   3.5441   8.3405  11.7620  14.8619  18.2030
    18.7212  19.0784

          k = 0.6644-0.6644-1.8324 (  3174 PWs)   bands (ev):

   -13.0317 -13.0317 -12.9555 -12.9555 -12.9090 -12.9090 -12.8847 -12.8847
   -12.8618 -12.8618   1.6555   1.6555   9.7085   9.7085  16.5543  16.5543
    18.6192  18.6192

          k = 0.3322-0.6644-1.2216 (  3151 PWs)   bands (ev):

   -13.0219 -12.9848 -12.9635 -12.9610 -12.9357 -12.9008 -12.8910 -12.8694
   -12.8647 -12.8191   1.9073   5.2342  10.0650  10.4389  13.2260  13.7099
    16.5206  16.6406

          k = 0.4983-0.4983-1.2216 (  3154 PWs)   bands (ev):

   -12.9996 -12.9996 -12.9756 -12.9756 -12.9024 -12.9024 -12.8749 -12.8749
   -12.8529 -12.8529   3.3267   3.3267  10.0094  10.0094  14.7592  14.7592
    15.2532  15.2532

          k = 0.3322-0.4983-0.9162 (  3142 PWs)   bands (ev):

   -13.0217 -12.9959 -12.9822 -12.9652 -12.9200 -12.8858 -12.8836 -12.8511
   -12.8509 -12.8289   4.2655   5.4032   7.3426   8.3510  13.8448  15.6411
    16.4683  16.5585

          k = 0.0000 0.0000 1.2216 (  3140 PWs)   bands (ev):

   -12.9976 -12.9561 -12.9561 -12.9532 -12.9276 -12.9256 -12.9256 -12.8687
   -12.8675 -12.8324   4.2427   5.0482   8.0557   8.0557   8.3637  15.6646
    18.5733  18.5733

          k = 0.8305 0.0000-0.3054 (  3142 PWs)   bands (ev):

   -13.0092 -13.0062 -12.9368 -12.9254 -12.9181 -12.9111 -12.9070 -12.8947
   -12.8837 -12.8672   2.6982   3.5667   6.7202   7.5772  12.5916  18.9650
    20.9399  21.2128

          k = 0.6644 0.0000-0.0000 (  3144 PWs)   bands (ev):

   -13.0338 -13.0287 -12.9682 -12.9237 -12.9099 -12.9028 -12.9018 -12.8800
   -12.8768 -12.8594   1.0663   3.5389   6.6354   9.1519  17.6002  18.0895
    18.6649  21.0985

          k = 0.8305-0.8305-1.8324 (  3150 PWs)   bands (ev):

   -13.0321 -13.0321 -12.9336 -12.9336 -12.9043 -12.9043 -12.8924 -12.8924
   -12.8798 -12.8798   2.3723   2.3723   7.2365   7.2365  17.8197  17.8197
    20.4188  20.4188

          k = 0.0000 0.0000-1.8324 (  3108 PWs)   bands (ev):

   -13.0320 -13.0320 -12.9081 -12.9081 -12.9049 -12.9049 -12.8984 -12.8984
   -12.8983 -12.8983   2.9517   2.9517   6.0641   6.0641  17.6383  17.6383
    22.2626  22.2626

     the Fermi energy is    11.8590 ev

!    total energy              =    -357.25126280 Ry
     estimated scf accuracy    <          8.7E-09 Ry
     smearing contrib. (-TS)   =      -0.00066540 Ry
     internal energy E=F+TS    =    -357.25059740 Ry

     The total energy is F=E-TS. E is the sum of the following terms:
     one-electron contribution =    -140.97956768 Ry
     hartree contribution      =      91.96643606 Ry
     xc contribution           =     -87.25850846 Ry
     ewald contribution        =    -220.97895733 Ry

     convergence has been achieved in   7 iterations

     Forces acting on atoms (cartesian axes, Ry/au):

     atom    1 type  1   force =     0.00000000    0.00000000    0.00000000
     atom    2 type  1   force =     0.00000000    0.00000000    0.00000000
     The non-local contrib.  to forces
     atom    1 type  1   force =     0.00000000   -0.00000000   -0.00000000
     atom    2 type  1   force =     0.00000000   -0.00000000   -0.00000000
     The ionic contribution  to forces
     atom    1 type  1   force =     0.00000000   -0.00000000    0.00000000
     atom    2 type  1   force =    -0.00000000   -0.00000000   -0.00000000
     The local contribution  to forces
     atom    1 type  1   force =    -0.00000000    0.00000000   -0.00000000
     atom    2 type  1   force =    -0.00000000    0.00000000    0.00000000
     The core correction contribution to forces
     atom    1 type  1   force =     0.00000000    0.00000000    0.00000000
     atom    2 type  1   force =     0.00000000    0.00000000   -0.00000000
     The Hubbard contrib.    to forces
     atom    1 type  1   force =     0.00000000    0.00000000    0.00000000
     atom    2 type  1   force =     0.00000000    0.00000000    0.00000000
     The SCF correction term to forces
     atom    1 type  1   force =     0.00000000    0.00000000    0.00000000
     atom    2 type  1   force =    -0.00000000    0.00000000   -0.00000000

     Total force =     0.000000     Total SCF correction =     0.000000


     Computing stress (Cartesian axis) and pressure

          total   stress  (Ry/bohr**3)                   (kbar)     P=       -0.28
   0.00003189  -0.00000000  -0.00000000            4.69       -0.00       -0.00
  -0.00000000   0.00003189   0.00000000           -0.00        4.69        0.00
  -0.00000000   0.00000000  -0.00006949           -0.00        0.00      -10.22

     Energy error            =      1.4E-04 Ry
     Gradient error          =      0.0E+00 Ry/Bohr
     Cell gradient error     =      1.0E+01 kbar

     number of scf cycles    =   3
     number of bfgs steps    =   2

     enthalpy           old  =    -357.2511207995 Ry
     enthalpy           new  =    -357.2512627985 Ry

     CASE: enthalpy          _new < enthalpy          _old

     new trust radius        =       0.0198699299 bohr
ibrav =      7
 celldm(1) =      9.88866491
 celldm(3) =      0.53896314
Input lattice vectors:
     0.50315903    -0.50315903     0.27118417
     0.50315903     0.50315903     0.27118417
    -0.50315903    -0.50315903     0.27118417
New lattice vectors in INITIAL alat:
     0.50315903    -0.50315903     0.27118417
     0.50315903     0.50315903     0.27118417
    -0.50315903    -0.50315903     0.27118417
New lattice vectors in NEW alat (for information only):
     0.50000000    -0.50000000     0.26948157
     0.50000000     0.50000000     0.26948157
    -0.50000000    -0.50000000     0.26948157
Discrepancy in bohr =     0.000000    0.000000    0.000000

Atomic positions rescaled with new alat:
Ge            0.0000000000        0.0000000000       -0.0000000000
Ge            0.0000000000        0.5000000000        0.1347407850
     new conv_thr            =       0.0000000100 Ry

     new unit-cell volume =    260.58058 a.u.^3 (    38.61406 Ang^3 )
     density =      6.24669 g/cm^3

CELL_PARAMETERS (alat=  9.82658000)
   0.503159029  -0.503159029   0.271184170
   0.503159029   0.503159029   0.271184170
  -0.503159029  -0.503159029   0.271184170

ATOMIC_POSITIONS (alat)
Ge            0.0000000000        0.0000000000       -0.0000000000
Ge            0.0000000000        0.5031590294        0.1355920852



     Writing config-only to output data dir ./Ge_out/Ge_scf.save/
     NEW-OLD atomic charge density approx. for the potential
     extrapolated charge   27.98729, renormalised to   28.00000

     total cpu time spent up to now is       30.1 secs

     Self-consistent Calculation

     iteration #  1     ecut=    80.00 Ry     beta= 0.40
     Davidson diagonalization with overlap
     ethr =  1.00E-06,  avg # of iterations =  5.3

     Threshold (ethr) on eigenvalues was too large:
     Diagonalizing with lowered threshold

     Davidson diagonalization with overlap
     ethr =  6.84E-08,  avg # of iterations =  1.8

     total cpu time spent up to now is       33.2 secs

     total energy              =    -357.25134786 Ry
     estimated scf accuracy    <       0.00001935 Ry

     iteration #  2     ecut=    80.00 Ry     beta= 0.40
     Davidson diagonalization with overlap
     ethr =  6.91E-08,  avg # of iterations =  3.0

     total cpu time spent up to now is       34.5 secs

     total energy              =    -357.25136427 Ry
     estimated scf accuracy    <       0.00000565 Ry

     iteration #  3     ecut=    80.00 Ry     beta= 0.40
     Davidson diagonalization with overlap
     ethr =  2.02E-08,  avg # of iterations =  1.0

     total cpu time spent up to now is       35.5 secs

     total energy              =    -357.25136311 Ry
     estimated scf accuracy    <       0.00000206 Ry

     iteration #  4     ecut=    80.00 Ry     beta= 0.40
     Davidson diagonalization with overlap
     ethr =  7.34E-09,  avg # of iterations =  2.0

     total cpu time spent up to now is       36.8 secs

     total energy              =    -357.25136357 Ry
     estimated scf accuracy    <       0.00000007 Ry

     iteration #  5     ecut=    80.00 Ry     beta= 0.40
     Davidson diagonalization with overlap
     ethr =  2.41E-10,  avg # of iterations =  1.2

     total cpu time spent up to now is       37.8 secs

     total energy              =    -357.25136355 Ry
     estimated scf accuracy    <       0.00000002 Ry

     iteration #  6     ecut=    80.00 Ry     beta= 0.40
     Davidson diagonalization with overlap
     ethr =  8.01E-11,  avg # of iterations =  2.0

     total cpu time spent up to now is       39.1 secs

     total energy              =    -357.25136356 Ry
     estimated scf accuracy    <       0.00000001 Ry

     iteration #  7     ecut=    80.00 Ry     beta= 0.40
     Davidson diagonalization with overlap
     ethr =  4.37E-11,  avg # of iterations =  1.0

     total cpu time spent up to now is       40.1 secs

     End of self-consistent calculation

          k = 0.0000 0.0000 0.0000 (  3147 PWs)   bands (ev):

   -13.0474 -13.0268 -12.9979 -12.9827 -12.8991 -12.8991 -12.8937 -12.8937
   -12.8327 -12.7704  -1.2568   7.4082   9.4547   9.4547  15.0476  18.9749
    18.9749  19.6474

          k =-0.1656 0.0000 0.3073 (  3156 PWs)   bands (ev):

   -13.0384 -12.9954 -12.9713 -12.9623 -12.9193 -12.9109 -12.8997 -12.8993
   -12.8381 -12.7805  -0.5969   6.9506   9.5001  11.1137  15.4998  16.2147
    16.2535  17.7057

          k =-0.3312 0.0000 0.6146 (  3152 PWs)   bands (ev):

   -13.0198 -12.9628 -12.9600 -12.9543 -12.9347 -12.9196 -12.8890 -12.8653
   -12.8518 -12.8013   1.3567   6.9329   9.9429  10.2091  12.0989  14.4771
    15.8078  16.2022

          k = 0.4969 0.0000-0.9219 (  3152 PWs)   bands (ev):

   -13.0112 -12.9806 -12.9756 -12.9476 -12.9305 -12.9207 -12.8622 -12.8455
   -12.8443 -12.8117   3.8091   5.5049   9.0127   9.7557  10.4823  14.2611
    15.1323  16.9761

          k =-0.1656 0.1656 0.6146 (  3157 PWs)   bands (ev):

   -13.0261 -12.9676 -12.9564 -12.9368 -12.9319 -12.9274 -12.9087 -12.8659
   -12.8466 -12.7921   1.0700   7.4500  10.5519  11.2968  12.1880  12.1938
    16.2347  16.3705

          k =-0.3312 0.1656 0.9219 (  3155 PWs)   bands (ev):

   -13.0186 -12.9811 -12.9636 -12.9398 -12.9381 -12.9157 -12.8729 -12.8617
   -12.8304 -12.8082   3.6960   6.0365   7.8332   9.7548  11.7068  13.6213
    15.3268  17.3935

          k = 0.4969 0.1656-0.6146 (  3146 PWs)   bands (ev):

   -13.0077 -12.9750 -12.9696 -12.9406 -12.9301 -12.9128 -12.8701 -12.8662
   -12.8632 -12.8215   2.2062   5.3369   9.0510  10.3936  12.1969  14.0198
    16.5630  17.0703

          k = 0.3312 0.1656-0.3073 (  3157 PWs)   bands (ev):

   -13.0186 -12.9998 -12.9796 -12.9526 -12.9199 -12.9053 -12.8919 -12.8899
   -12.8523 -12.8025  -0.0102   4.9866   9.6251  12.7457  14.1770  15.5259
    16.3407  18.1421

          k = 0.1656 0.1656 0.0000 (  3162 PWs)   bands (ev):

   -13.0348 -13.0286 -13.0045 -12.9715 -12.9042 -12.8935 -12.8909 -12.8888
   -12.8405 -12.7841  -0.9621   5.6899   9.7771  10.5785  16.4922  16.8991
    17.6199  19.6149

          k =-0.3312 0.3312 1.2292 (  3148 PWs)   bands (ev):

   -13.0044 -12.9802 -12.9625 -12.9518 -12.9152 -12.8904 -12.8829 -12.8805
   -12.8578 -12.8300   3.4844   3.6785   8.7396  11.1600  11.9705  12.7750
    17.8148  18.0699

          k = 0.4969 0.3312-0.3073 (  3156 PWs)   bands (ev):

   -13.0030 -12.9952 -12.9827 -12.9467 -12.9207 -12.8958 -12.8860 -12.8778
   -12.8664 -12.8350   1.1532   2.8588  10.7112  12.3680  14.0513  14.7444
    15.7512  16.7459

          k = 0.3312 0.3312-0.0000 (  3168 PWs)   bands (ev):

   -13.0306 -13.0176 -13.0006 -12.9422 -12.9222 -12.8879 -12.8833 -12.8745
   -12.8611 -12.8172  -0.0807   3.3498  10.7332  11.9058  14.3904  15.4115
    19.2409  19.3921

          k = 0.4969-0.4969-1.8438 (  3168 PWs)   bands (ev):

   -13.0275 -13.0275 -12.9571 -12.9571 -12.9064 -12.9064 -12.8758 -12.8758
   -12.8509 -12.8509   1.3727   1.3727  12.2905  12.2905  13.4582  13.4582
    19.1269  19.1269

          k = 0.0000 0.0000 0.6146 (  3156 PWs)   bands (ev):

   -13.0282 -12.9598 -12.9544 -12.9544 -12.9304 -12.9183 -12.9183 -12.8729
   -12.8399 -12.7839   0.7804   9.0824  10.9211  10.9211  11.7297  11.8566
    15.8089  15.8089

          k =-0.1656 0.0000 0.9219 (  3152 PWs)   bands (ev):

   -13.0132 -12.9716 -12.9618 -12.9394 -12.9354 -12.9293 -12.8995 -12.8526
   -12.8289 -12.7988   3.2541   7.0049   8.2838  10.2683  10.9571  12.0092
    15.2341  16.4858

          k = 0.6625 0.0000-0.6146 (  3146 PWs)   bands (ev):

   -13.0000 -12.9685 -12.9571 -12.9514 -12.9211 -12.9159 -12.8891 -12.8675
   -12.8588 -12.8266   2.9944   5.2185   8.5868   8.5987  11.2423  14.0001
    17.1934  19.0562

          k = 0.4969 0.0000-0.3073 (  3148 PWs)   bands (ev):

   -13.0075 -12.9920 -12.9890 -12.9413 -12.9128 -12.9042 -12.9014 -12.8763
   -12.8618 -12.8239   0.5680   4.6951   7.8057  11.8714  13.9229  15.7672
    17.5592  19.3257

          k = 0.3312 0.0000 0.0000 (  3166 PWs)   bands (ev):

   -13.0312 -13.0211 -13.0098 -12.9616 -12.8990 -12.8979 -12.8942 -12.8806
   -12.8471 -12.7973  -0.6684   5.2388   8.1646  12.8175  14.2970  17.4794
    19.3347  19.3630

          k =-0.1656 0.1656 1.2292 (  3144 PWs)   bands (ev):

   -13.0004 -12.9705 -12.9367 -12.9350 -12.9285 -12.9186 -12.9130 -12.8683
   -12.8584 -12.8261   3.9580   4.4337   8.0160   9.2189   9.6502  14.4065
    18.7562  18.8090

          k = 0.6625 0.1656-0.3073 (  3158 PWs)   bands (ev):

   -13.0048 -13.0002 -12.9603 -12.9290 -12.9193 -12.9011 -12.8942 -12.8798
   -12.8717 -12.8480   1.6975   3.2686   8.1218   9.6942  13.3218  17.2647
    18.3852  19.6447

          k = 0.4969 0.1656-0.0000 (  3155 PWs)   bands (ev):

   -13.0311 -13.0203 -12.9897 -12.9357 -12.9154 -12.8920 -12.8871 -12.8718
   -12.8648 -12.8285   0.2068   3.5065   8.3124  11.7130  14.7823  18.2202
    18.9062  19.1595

          k = 0.6625-0.6625-1.8438 (  3174 PWs)   bands (ev):

   -13.0282 -13.0282 -12.9486 -12.9486 -12.9042 -12.9042 -12.8791 -12.8791
   -12.8572 -12.8572   1.6357   1.6357   9.6696   9.6696  16.4873  16.4873
    18.7909  18.7909

          k = 0.3312-0.6625-1.2292 (  3151 PWs)   bands (ev):

   -13.0154 -12.9780 -12.9573 -12.9540 -12.9307 -12.8965 -12.8850 -12.8655
   -12.8586 -12.8161   1.9326   5.2405  10.1295  10.4957  13.2092  13.6728
    16.4872  16.6100

          k = 0.4969-0.4969-1.2292 (  3154 PWs)   bands (ev):

   -12.9931 -12.9931 -12.9685 -12.9685 -12.8980 -12.8980 -12.8690 -12.8690
   -12.8494 -12.8494   3.3439   3.3439  10.0756  10.0756  14.7251  14.7251
    15.2083  15.2083

          k = 0.3312-0.4969-0.9219 (  3142 PWs)   bands (ev):

   -13.0156 -12.9900 -12.9762 -12.9593 -12.9151 -12.8814 -12.8795 -12.8446
   -12.8437 -12.8240   4.3358   5.4612   7.3543   8.3467  13.8518  15.6365
    16.4607  16.5416

          k = 0.0000 0.0000 1.2292 (  3140 PWs)   bands (ev):

   -12.9912 -12.9511 -12.9511 -12.9460 -12.9225 -12.9200 -12.9200 -12.8639
   -12.8612 -12.8284   4.2763   5.0301   8.0804   8.0804   8.3979  15.6617
    18.6095  18.6095

          k = 0.8281 0.0000-0.3073 (  3142 PWs)   bands (ev):

   -13.0046 -13.0010 -12.9307 -12.9191 -12.9124 -12.9060 -12.9005 -12.8895
   -12.8799 -12.8635   2.6788   3.5331   6.7216   7.5673  12.7223  19.0603
    20.8648  21.2090

          k = 0.6625 0.0000-0.0000 (  3144 PWs)   bands (ev):

   -13.0308 -13.0253 -12.9620 -12.9189 -12.9042 -12.8956 -12.8949 -12.8759
   -12.8715 -12.8553   1.0505   3.4935   6.6262   9.1163  17.6386  18.2865
    18.7195  21.0069

          k = 0.8281-0.8281-1.8438 (  3150 PWs)   bands (ev):

   -13.0290 -13.0290 -12.9274 -12.9274 -12.8993 -12.8993 -12.8865 -12.8865
   -12.8746 -12.8746   2.3428   2.3428   7.2160   7.2160  18.0152  18.0152
    20.3199  20.3199

          k = 0.0000 0.0000-1.8438 (  3108 PWs)   bands (ev):

   -13.0290 -13.0290 -12.9044 -12.9044 -12.8973 -12.8973 -12.8944 -12.8944
   -12.8912 -12.8912   2.9101   2.9101   6.0589   6.0589  17.8437  17.8437
    22.1550  22.1550

     the Fermi energy is    11.8439 ev

!    total energy              =    -357.25136356 Ry
     estimated scf accuracy    <          1.8E-09 Ry
     smearing contrib. (-TS)   =      -0.00074028 Ry
     internal energy E=F+TS    =    -357.25062328 Ry

     The total energy is F=E-TS. E is the sum of the following terms:
     one-electron contribution =    -140.93076137 Ry
     hartree contribution      =      91.94624694 Ry
     xc contribution           =     -87.25841683 Ry
     ewald contribution        =    -221.00769202 Ry

     convergence has been achieved in   7 iterations

     Forces acting on atoms (cartesian axes, Ry/au):

     atom    1 type  1   force =     0.00000000    0.00000000    0.00000000
     atom    2 type  1   force =     0.00000000    0.00000000    0.00000000
     The non-local contrib.  to forces
     atom    1 type  1   force =     0.00000000    0.00000000    0.00000000
     atom    2 type  1   force =     0.00000000    0.00000000    0.00000000
     The ionic contribution  to forces
     atom    1 type  1   force =    -0.00000000    0.00000000    0.00000000
     atom    2 type  1   force =    -0.00000000   -0.00000000   -0.00000000
     The local contribution  to forces
     atom    1 type  1   force =     0.00000000    0.00000000    0.00000000
     atom    2 type  1   force =    -0.00000000    0.00000000    0.00000000
     The core correction contribution to forces
     atom    1 type  1   force =     0.00000000   -0.00000000   -0.00000000
     atom    2 type  1   force =     0.00000000    0.00000000    0.00000000
     The Hubbard contrib.    to forces
     atom    1 type  1   force =     0.00000000    0.00000000    0.00000000
     atom    2 type  1   force =     0.00000000    0.00000000    0.00000000
     The SCF correction term to forces
     atom    1 type  1   force =    -0.00000000   -0.00000000    0.00000000
     atom    2 type  1   force =     0.00000000    0.00000000    0.00000000

     Total force =     0.000000     Total SCF correction =     0.000000


     Computing stress (Cartesian axis) and pressure

          total   stress  (Ry/bohr**3)                   (kbar)     P=       -1.34
   0.00000010   0.00000000  -0.00000000            0.01        0.00       -0.00
   0.00000000   0.00000010  -0.00000000            0.00        0.01       -0.00
  -0.00000000  -0.00000000  -0.00002743           -0.00       -0.00       -4.04

     Energy error            =      1.0E-04 Ry
     Gradient error          =      0.0E+00 Ry/Bohr
     Cell gradient error     =      4.0E+00 kbar

     number of scf cycles    =   4
     number of bfgs steps    =   3

     enthalpy           old  =    -357.2512627985 Ry
     enthalpy           new  =    -357.2513635602 Ry

     CASE: enthalpy          _new < enthalpy          _old

     new trust radius        =       0.0086392220 bohr
ibrav =      7
 celldm(1) =      9.89779571
 celldm(3) =      0.53702505
Input lattice vectors:
     0.50362363    -0.50362363     0.27045850
     0.50362363     0.50362363     0.27045850
    -0.50362363    -0.50362363     0.27045850
New lattice vectors in INITIAL alat:
     0.50362363    -0.50362363     0.27045850
     0.50362363     0.50362363     0.27045850
    -0.50362363    -0.50362363     0.27045850
New lattice vectors in NEW alat (for information only):
     0.50000000    -0.50000000     0.26851252
     0.50000000     0.50000000     0.26851252
    -0.50000000    -0.50000000     0.26851252
Discrepancy in bohr =     0.000000    0.000000    0.000000

Atomic positions rescaled with new alat:
Ge            0.0000000000        0.0000000000       -0.0000000000
Ge            0.0000000000        0.5000000000        0.1342562622
     new conv_thr            =       0.0000000100 Ry

     new unit-cell volume =    260.36344 a.u.^3 (    38.58188 Ang^3 )
     density =      6.25190 g/cm^3

CELL_PARAMETERS (alat=  9.82658000)
   0.503623626  -0.503623626   0.270458503
   0.503623626   0.503623626   0.270458503
  -0.503623626  -0.503623626   0.270458503

ATOMIC_POSITIONS (alat)
Ge            0.0000000000        0.0000000000       -0.0000000000
Ge            0.0000000000        0.5036236264        0.1352292513



     Writing config-only to output data dir ./Ge_out/Ge_scf.save/
     NEW-OLD atomic charge density approx. for the potential
     extrapolated charge   27.97665, renormalised to   28.00000

     total cpu time spent up to now is       42.0 secs

     Self-consistent Calculation

     iteration #  1     ecut=    80.00 Ry     beta= 0.40
     Davidson diagonalization with overlap
     ethr =  1.00E-06,  avg # of iterations =  4.4

     total cpu time spent up to now is       43.6 secs

     total energy              =    -357.25131621 Ry
     estimated scf accuracy    <       0.00003019 Ry

     iteration #  2     ecut=    80.00 Ry     beta= 0.40
     Davidson diagonalization with overlap
     ethr =  1.08E-07,  avg # of iterations =  3.2

     total cpu time spent up to now is       45.3 secs

     total energy              =    -357.25137577 Ry
     estimated scf accuracy    <       0.00001153 Ry

     iteration #  3     ecut=    80.00 Ry     beta= 0.40
     Davidson diagonalization with overlap
     ethr =  4.12E-08,  avg # of iterations =  1.0

     total cpu time spent up to now is       46.2 secs

     total energy              =    -357.25137228 Ry
     estimated scf accuracy    <       0.00000483 Ry

     iteration #  4     ecut=    80.00 Ry     beta= 0.40
     Davidson diagonalization with overlap
     ethr =  1.73E-08,  avg # of iterations =  2.0

     total cpu time spent up to now is       47.5 secs

     total energy              =    -357.25137374 Ry
     estimated scf accuracy    <       0.00000017 Ry

     iteration #  5     ecut=    80.00 Ry     beta= 0.40
     Davidson diagonalization with overlap
     ethr =  6.21E-10,  avg # of iterations =  1.2

     total cpu time spent up to now is       48.5 secs

     total energy              =    -357.25137368 Ry
     estimated scf accuracy    <       0.00000008 Ry

     iteration #  6     ecut=    80.00 Ry     beta= 0.40
     Davidson diagonalization with overlap
     ethr =  2.75E-10,  avg # of iterations =  2.0

     total cpu time spent up to now is       49.8 secs

     total energy              =    -357.25137370 Ry
     estimated scf accuracy    <       0.00000003 Ry

     iteration #  7     ecut=    80.00 Ry     beta= 0.40
     Davidson diagonalization with overlap
     ethr =  9.97E-11,  avg # of iterations =  1.9

     total cpu time spent up to now is       50.9 secs

     End of self-consistent calculation

          k = 0.0000 0.0000 0.0000 (  3147 PWs)   bands (ev):

   -13.0356 -13.0164 -12.9875 -12.9710 -12.8862 -12.8862 -12.8810 -12.8810
   -12.8217 -12.7595  -1.2513   7.3818   9.4496   9.4496  15.0445  18.9599
    18.9599  19.7301

          k =-0.1655 0.0000 0.3081 (  3156 PWs)   bands (ev):

   -13.0265 -12.9840 -12.9596 -12.9508 -12.9069 -12.8987 -12.8872 -12.8869
   -12.8270 -12.7696  -0.5885   6.9360   9.5010  11.1055  15.5562  16.2139
    16.3059  17.7030

          k =-0.3309 0.0000 0.6162 (  3152 PWs)   bands (ev):

   -13.0077 -12.9510 -12.9477 -12.9419 -12.9231 -12.9077 -12.8768 -12.8527
   -12.8406 -12.7903   1.3747   6.9429   9.9588  10.2334  12.1271  14.4790
    15.8430  16.1980

          k = 0.4964 0.0000-0.9244 (  3152 PWs)   bands (ev):

   -12.9992 -12.9686 -12.9642 -12.9353 -12.9188 -12.9092 -12.8509 -12.8328
   -12.8315 -12.7998   3.8474   5.5297   9.0222   9.7531  10.5131  14.2802
    15.1443  16.9850

          k =-0.1655 0.1655 0.6162 (  3157 PWs)   bands (ev):

   -13.0140 -12.9555 -12.9446 -12.9249 -12.9199 -12.9156 -12.8963 -12.8532
   -12.8354 -12.7811   1.0885   7.4577  10.5812  11.3218  12.1983  12.2019
    16.2598  16.3945

          k =-0.3309 0.1655 0.9244 (  3155 PWs)   bands (ev):

   -13.0067 -12.9693 -12.9517 -12.9280 -12.9263 -12.9041 -12.8604 -12.8503
   -12.8170 -12.7966   3.7335   6.0634   7.8465   9.7573  11.7281  13.6383
    15.3396  17.3966

          k = 0.4964 0.1655-0.6162 (  3146 PWs)   bands (ev):

   -12.9956 -12.9627 -12.9573 -12.9286 -12.9181 -12.9012 -12.8580 -12.8545
   -12.8513 -12.8103   2.2228   5.3487   9.0854  10.4032  12.2228  14.0217
    16.5563  17.0990

          k = 0.3309 0.1655-0.3081 (  3157 PWs)   bands (ev):

   -13.0066 -12.9882 -12.9678 -12.9409 -12.9074 -12.8931 -12.8797 -12.8779
   -12.8412 -12.7915  -0.0030   4.9809   9.6248  12.7360  14.2096  15.5493
    16.3838  18.1392

          k = 0.1655 0.1655 0.0000 (  3162 PWs)   bands (ev):

   -13.0229 -13.0180 -12.9939 -12.9599 -12.8913 -12.8808 -12.8783 -12.8762
   -12.8294 -12.7732  -0.9572   5.6762   9.7717  10.5638  16.4850  16.8945
    17.6003  19.7028

          k =-0.3309 0.3309 1.2325 (  3148 PWs)   bands (ev):

   -12.9923 -12.9680 -12.9503 -12.9394 -12.9036 -12.8785 -12.8714 -12.8691
   -12.8456 -12.8187   3.5010   3.6904   8.7779  11.1748  11.9703  12.7974
    17.8096  18.0714

          k = 0.4964 0.3309-0.3081 (  3156 PWs)   bands (ev):

   -12.9913 -12.9833 -12.9704 -12.9342 -12.9092 -12.8839 -12.8740 -12.8665
   -12.8548 -12.8237   1.1579   2.8593  10.7112  12.3720  14.0563  14.7783
    15.7759  16.7540

          k = 0.3309 0.3309-0.0000 (  3168 PWs)   bands (ev):

   -13.0198 -13.0067 -12.9885 -12.9307 -12.9094 -12.8756 -12.8709 -12.8623
   -12.8498 -12.8061  -0.0777   3.3442  10.7269  11.8885  14.3828  15.3912
    19.3295  19.4743

          k = 0.4964-0.4964-1.8487 (  3168 PWs)   bands (ev):

   -13.0166 -13.0166 -12.9446 -12.9446 -12.8948 -12.8948 -12.8637 -12.8637
   -12.8392 -12.8392   1.3723   1.3723  12.2831  12.2831  13.4393  13.4393
    19.2139  19.2139

          k = 0.0000 0.0000 0.6162 (  3156 PWs)   bands (ev):

   -13.0162 -12.9480 -12.9427 -12.9427 -12.9176 -12.9064 -12.9064 -12.8599
   -12.8288 -12.7728   0.7994   9.0830  10.9390  10.9390  11.7563  11.8704
    15.8375  15.8375

          k =-0.1655 0.0000 0.9244 (  3152 PWs)   bands (ev):

   -13.0012 -12.9603 -12.9502 -12.9277 -12.9236 -12.9177 -12.8865 -12.8414
   -12.8152 -12.7873   3.2914   7.0277   8.2898  10.2994  10.9684  12.0146
    15.2492  16.4920

          k = 0.6619 0.0000-0.6162 (  3146 PWs)   bands (ev):

   -12.9879 -12.9564 -12.9454 -12.9389 -12.9091 -12.9043 -12.8771 -12.8562
   -12.8464 -12.8152   3.0102   5.2310   8.6153   8.6155  11.2455  14.0238
    17.2279  19.0514

          k = 0.4964 0.0000-0.3081 (  3148 PWs)   bands (ev):

   -12.9960 -12.9799 -12.9771 -12.9295 -12.9006 -12.8923 -12.8889 -12.8646
   -12.8505 -12.8128   0.5739   4.6880   7.8106  11.8764  13.9681  15.7607
    17.6048  19.3474

          k = 0.3309 0.0000 0.0000 (  3166 PWs)   bands (ev):

   -13.0204 -13.0093 -12.9991 -12.9500 -12.8864 -12.8850 -12.8814 -12.8682
   -12.8360 -12.7863  -0.6642   5.2249   8.1637  12.7987  14.2853  17.4709
    19.4239  19.4467

          k =-0.1655 0.1655 1.2325 (  3144 PWs)   bands (ev):

   -12.9883 -12.9583 -12.9248 -12.9229 -12.9165 -12.9067 -12.9014 -12.8571
   -12.8458 -12.8147   3.9776   4.4410   8.0491   9.2304   9.6579  14.4302
    18.7809  18.8272

          k = 0.6619 0.1655-0.3081 (  3158 PWs)   bands (ev):

   -12.9933 -12.9884 -12.9481 -12.9166 -12.9075 -12.8891 -12.8821 -12.8685
   -12.8600 -12.8367   1.7006   3.2669   8.1245   9.6945  13.3803  17.3014
    18.3830  19.6347

          k = 0.4964 0.1655-0.0000 (  3155 PWs)   bands (ev):

   -13.0204 -13.0094 -12.9776 -12.9242 -12.9028 -12.8795 -12.8747 -12.8597
   -12.8534 -12.8173   0.2091   3.4995   8.3092  11.7034  14.7629  18.2309
    18.9956  19.2172

          k = 0.6619-0.6619-1.8487 (  3174 PWs)   bands (ev):

   -13.0173 -13.0173 -12.9363 -12.9363 -12.8926 -12.8926 -12.8669 -12.8669
   -12.8455 -12.8455   1.6344   1.6344   9.6631   9.6631  16.4724  16.4724
    18.8758  18.8758

          k = 0.3309-0.6619-1.2325 (  3151 PWs)   bands (ev):

   -13.0032 -12.9657 -12.9452 -12.9415 -12.9191 -12.8851 -12.8727 -12.8542
   -12.8463 -12.8050   1.9496   5.2520  10.1652  10.5285  13.2136  13.6705
    16.4868  16.6108

          k = 0.4964-0.4964-1.2325 (  3154 PWs)   bands (ev):

   -12.9810 -12.9810 -12.9560 -12.9560 -12.8865 -12.8865 -12.8568 -12.8568
   -12.8381 -12.8381   3.3585   3.3585  10.1120  10.1120  14.7231  14.7231
    15.2034  15.2034

          k = 0.3309-0.4964-0.9244 (  3142 PWs)   bands (ev):

   -13.0037 -12.9782 -12.9642 -12.9473 -12.9034 -12.8699 -12.8681 -12.8322
   -12.8308 -12.8119   4.3734   5.4941   7.3666   8.3527  13.8669  15.6482
    16.4691  16.5494

          k = 0.0000 0.0000 1.2325 (  3140 PWs)   bands (ev):

   -12.9791 -12.9395 -12.9395 -12.9334 -12.9109 -12.9080 -12.9080 -12.8527
   -12.8484 -12.8169   4.2989   5.0323   8.0977   8.0977   8.4202  15.6758
    18.6374  18.6374

          k = 0.8273 0.0000-0.3081 (  3142 PWs)   bands (ev):

   -12.9932 -12.9893 -12.9186 -12.9069 -12.9003 -12.8942 -12.8881 -12.8777
   -12.8687 -12.8522   2.6786   3.5282   6.7289   7.5710  12.7857  19.1146
    20.8504  21.2217

          k = 0.6619 0.0000-0.0000 (  3144 PWs)   bands (ev):

   -13.0201 -13.0144 -12.9499 -12.9073 -12.8921 -12.8829 -12.8824 -12.8645
   -12.8595 -12.8438   1.0504   3.4839   6.6290   9.1108  17.6560  18.3798
    18.7686  20.9858

          k = 0.8273-0.8273-1.8487 (  3150 PWs)   bands (ev):

   -13.0182 -13.0182 -12.9153 -12.9153 -12.8876 -12.8876 -12.8742 -12.8742
   -12.8626 -12.8626   2.3384   2.3384   7.2153   7.2153  18.1070  18.1070
    20.2965  20.2965

          k = 0.0000 0.0000-1.8487 (  3108 PWs)   bands (ev):

   -13.0184 -13.0184 -12.8933 -12.8933 -12.8844 -12.8844 -12.8831 -12.8831
   -12.8785 -12.8785   2.9018   2.9018   6.0630   6.0630  17.9398  17.9398
    22.1289  22.1289

     the Fermi energy is    11.8494 ev

!    total energy              =    -357.25137370 Ry
     estimated scf accuracy    <          1.6E-09 Ry
     smearing contrib. (-TS)   =      -0.00078241 Ry
     internal energy E=F+TS    =    -357.25059129 Ry

     The total energy is F=E-TS. E is the sum of the following terms:
     one-electron contribution =    -140.83876416 Ry
     hartree contribution      =      91.91261041 Ry
     xc contribution           =     -87.25924715 Ry
     ewald contribution        =    -221.06519038 Ry

     convergence has been achieved in   7 iterations

     Forces acting on atoms (cartesian axes, Ry/au):

     atom    1 type  1   force =     0.00000000    0.00000000    0.00000000
     atom    2 type  1   force =     0.00000000   -0.00000000   -0.00000000
     The non-local contrib.  to forces
     atom    1 type  1   force =     0.00000000    0.00000000    0.00000000
     atom    2 type  1   force =     0.00000000    0.00000000    0.00000000
     The ionic contribution  to forces
     atom    1 type  1   force =     0.00000000    0.00000000    0.00000000
     atom    2 type  1   force =     0.00000000    0.00000000    0.00000000
     The local contribution  to forces
     atom    1 type  1   force =    -0.00000000    0.00000000    0.00000000
     atom    2 type  1   force =    -0.00000000   -0.00000000    0.00000000
     The core correction contribution to forces
     atom    1 type  1   force =    -0.00000000    0.00000000   -0.00000000
     atom    2 type  1   force =    -0.00000000   -0.00000000   -0.00000000
     The Hubbard contrib.    to forces
     atom    1 type  1   force =     0.00000000    0.00000000    0.00000000
     atom    2 type  1   force =     0.00000000    0.00000000    0.00000000
     The SCF correction term to forces
     atom    1 type  1   force =     0.00000000    0.00000000   -0.00000000
     atom    2 type  1   force =     0.00000000   -0.00000000   -0.00000000

     Total force =     0.000000     Total SCF correction =     0.000000


     Computing stress (Cartesian axis) and pressure

          total   stress  (Ry/bohr**3)                   (kbar)     P=       -0.94
  -0.00000606  -0.00000000   0.00000000           -0.89       -0.00        0.00
  -0.00000000  -0.00000606   0.00000000           -0.00       -0.89        0.00
   0.00000000   0.00000000  -0.00000708            0.00        0.00       -1.04

     Energy error            =      1.0E-05 Ry
     Gradient error          =      1.8E-31 Ry/Bohr
     Cell gradient error     =      1.0E+00 kbar

     number of scf cycles    =   5
     number of bfgs steps    =   4

     enthalpy           old  =    -357.2513635602 Ry
     enthalpy           new  =    -357.2513737016 Ry

     CASE: enthalpy          _new < enthalpy          _old

     new trust radius        =       0.0012795082 bohr
ibrav =      7
 celldm(1) =      9.89762440
 celldm(3) =      0.53682142
Input lattice vectors:
     0.50361491    -0.50361491     0.27035127
     0.50361491     0.50361491     0.27035127
    -0.50361491    -0.50361491     0.27035127
New lattice vectors in INITIAL alat:
     0.50361491    -0.50361491     0.27035127
     0.50361491     0.50361491     0.27035127
    -0.50361491    -0.50361491     0.27035127
New lattice vectors in NEW alat (for information only):
     0.50000000    -0.50000000     0.26841071
     0.50000000     0.50000000     0.26841071
    -0.50000000    -0.50000000     0.26841071
Discrepancy in bohr =     0.000000    0.000000    0.000000

Atomic positions rescaled with new alat:
Ge            0.0000000000        0.0000000000        0.0000000000
Ge            0.0000000000        0.5000000000        0.1342053549
     new conv_thr            =       0.0000000100 Ry

     new unit-cell volume =    260.25120 a.u.^3 (    38.56525 Ang^3 )
     density =      6.25459 g/cm^3

CELL_PARAMETERS (alat=  9.82658000)
   0.503614910  -0.503614910   0.270351271
   0.503614910   0.503614910   0.270351271
  -0.503614910  -0.503614910   0.270351271

ATOMIC_POSITIONS (alat)
Ge            0.0000000000        0.0000000000        0.0000000000
Ge            0.0000000000        0.5036149096        0.1351756353



     Writing config-only to output data dir ./Ge_out/Ge_scf.save/
     NEW-OLD atomic charge density approx. for the potential
     extrapolated charge   27.98793, renormalised to   28.00000

     total cpu time spent up to now is       52.7 secs

     Self-consistent Calculation

     iteration #  1     ecut=    80.00 Ry     beta= 0.40
     Davidson diagonalization with overlap
     ethr =  1.00E-06,  avg # of iterations =  2.0

     Threshold (ethr) on eigenvalues was too large:
     Diagonalizing with lowered threshold

     Davidson diagonalization with overlap
     ethr =  2.81E-08,  avg # of iterations =  2.0

     total cpu time spent up to now is       55.0 secs

     total energy              =    -357.25135909 Ry
     estimated scf accuracy    <       0.00000760 Ry

     iteration #  2     ecut=    80.00 Ry     beta= 0.40
     Davidson diagonalization with overlap
     ethr =  2.71E-08,  avg # of iterations =  3.2

     total cpu time spent up to now is       56.6 secs

     total energy              =    -357.25137461 Ry
     estimated scf accuracy    <       0.00000286 Ry

     iteration #  3     ecut=    80.00 Ry     beta= 0.40
     Davidson diagonalization with overlap
     ethr =  1.02E-08,  avg # of iterations =  1.0

     total cpu time spent up to now is       57.6 secs

     total energy              =    -357.25137397 Ry
     estimated scf accuracy    <       0.00000118 Ry

     iteration #  4     ecut=    80.00 Ry     beta= 0.40
     Davidson diagonalization with overlap
     ethr =  4.22E-09,  avg # of iterations =  2.0

     total cpu time spent up to now is       58.8 secs

     total energy              =    -357.25137412 Ry
     estimated scf accuracy    <       0.00000008 Ry

     iteration #  5     ecut=    80.00 Ry     beta= 0.40
     Davidson diagonalization with overlap
     ethr =  2.95E-10,  avg # of iterations =  1.9

     total cpu time spent up to now is       59.8 secs

     total energy              =    -357.25137407 Ry
     estimated scf accuracy    <       0.00000006 Ry

     iteration #  6     ecut=    80.00 Ry     beta= 0.40
     Davidson diagonalization with overlap
     ethr =  2.10E-10,  avg # of iterations =  2.0

     total cpu time spent up to now is       61.1 secs

     End of self-consistent calculation

          k = 0.0000 0.0000 0.0000 (  3147 PWs)   bands (ev):

   -13.0297 -13.0105 -12.9816 -12.9650 -12.8799 -12.8799 -12.8748 -12.8748
   -12.8156 -12.7534  -1.2481   7.3855   9.4536   9.4536  15.0489  18.9660
    18.9660  19.7469

          k =-0.1655 0.0000 0.3082 (  3156 PWs)   bands (ev):

   -13.0206 -12.9781 -12.9536 -12.9448 -12.9008 -12.8926 -12.8810 -12.8807
   -12.8209 -12.7635  -0.5848   6.9403   9.5055  11.1103  15.5688  16.2190
    16.3184  17.7098

          k =-0.3309 0.0000 0.6165 (  3152 PWs)   bands (ev):

   -13.0017 -12.9450 -12.9416 -12.9358 -12.9171 -12.9016 -12.8707 -12.8464
   -12.8345 -12.7842   1.3800   6.9497   9.9651  10.2409  12.1362  14.4859
    15.8524  16.2042

          k = 0.4964 0.0000-0.9247 (  3152 PWs)   bands (ev):

   -12.9932 -12.9626 -12.9582 -12.9292 -12.9128 -12.9031 -12.8449 -12.8266
   -12.8253 -12.7936   3.8562   5.5365   9.0289   9.7575  10.5212  14.2872
    15.1522  16.9932

          k =-0.1655 0.1655 0.6165 (  3157 PWs)   bands (ev):

   -13.0080 -12.9494 -12.9385 -12.9188 -12.9138 -12.9095 -12.8901 -12.8469
   -12.8293 -12.7750   1.0938   7.4643  10.5894  11.3298  12.2050  12.2090
    16.2683  16.4030

          k =-0.3309 0.1655 0.9247 (  3155 PWs)   bands (ev):

   -13.0007 -12.9633 -12.9457 -12.9219 -12.9202 -12.8980 -12.8542 -12.8443
   -12.8107 -12.7905   3.7419   6.0711   7.8525   9.7623  11.7359  13.6463
    15.3466  17.4038

          k = 0.4964 0.1655-0.6165 (  3146 PWs)   bands (ev):

   -12.9896 -12.9567 -12.9512 -12.9225 -12.9121 -12.8951 -12.8518 -12.8483
   -12.8451 -12.8042   2.2282   5.3549   9.0936  10.4090  12.2314  14.0281
    16.5628  17.1085

          k = 0.3309 0.1655-0.3082 (  3157 PWs)   bands (ev):

   -13.0006 -12.9822 -12.9618 -12.9349 -12.9012 -12.8870 -12.8736 -12.8718
   -12.8351 -12.7854   0.0008   4.9850   9.6295  12.7411  14.2192  15.5580
    16.3954  18.1460

          k = 0.1655 0.1655 0.0000 (  3162 PWs)   bands (ev):

   -13.0169 -13.0122 -12.9881 -12.9539 -12.8851 -12.8746 -12.8721 -12.8700
   -12.8234 -12.7672  -0.9539   5.6799   9.7757  10.5678  16.4895  16.9007
    17.6055  19.7201

          k =-0.3309 0.3309 1.2330 (  3148 PWs)   bands (ev):

   -12.9862 -12.9619 -12.9442 -12.9333 -12.8975 -12.8724 -12.8653 -12.8631
   -12.8394 -12.8126   3.5070   3.6958   8.7865  11.1813  11.9754  12.8060
    17.8162  18.0792

          k = 0.4964 0.3309-0.3082 (  3156 PWs)   bands (ev):

   -12.9853 -12.9773 -12.9644 -12.9281 -12.9031 -12.8778 -12.8679 -12.8604
   -12.8487 -12.8176   1.1617   2.8633  10.7163  12.3780  14.0629  14.7882
    15.7853  16.7615

          k = 0.3309 0.3309-0.0000 (  3168 PWs)   bands (ev):

   -13.0139 -13.0008 -12.9825 -12.9247 -12.9032 -12.8695 -12.8648 -12.8561
   -12.8438 -12.8000  -0.0744   3.3477  10.7311  11.8926  14.3879  15.3957
    19.3467  19.4908

          k = 0.4964-0.4964-1.8494 (  3168 PWs)   bands (ev):

   -13.0107 -13.0107 -12.9385 -12.9385 -12.8888 -12.8888 -12.8575 -12.8575
   -12.8331 -12.8331   1.3756   1.3756  12.2876  12.2876  13.4436  13.4436
    19.2308  19.2308

          k = 0.0000 0.0000 0.6165 (  3156 PWs)   bands (ev):

   -13.0102 -12.9420 -12.9367 -12.9367 -12.9114 -12.9003 -12.9003 -12.8536
   -12.8227 -12.7667   0.8046   9.0904  10.9459  10.9459  11.7649  11.8774
    15.8462  15.8462

          k =-0.1655 0.0000 0.9247 (  3152 PWs)   bands (ev):

   -12.9952 -12.9543 -12.9441 -12.9216 -12.9176 -12.9116 -12.8803 -12.8353
   -12.8088 -12.7811   3.2996   7.0354   8.2952  10.3074  10.9747  12.0214
    15.2563  16.4989

          k = 0.6619 0.0000-0.6165 (  3146 PWs)   bands (ev):

   -12.9819 -12.9503 -12.9394 -12.9328 -12.9030 -12.8982 -12.8710 -12.8502
   -12.8402 -12.8091   3.0159   5.2375   8.6212   8.6229  11.2509  14.0331
    17.2378  19.0590

          k = 0.4964 0.0000-0.3082 (  3148 PWs)   bands (ev):

[...]
Ge            0.0000000000        0.0000000000        0.0000000000
Ge            0.0000000000        0.5036149096        0.1351756353
End final coordinates



     Writing config-only to output data dir ./Ge_out/Ge_scf.save/

     Final scf calculation at the relaxed structure.
     The G-vectors are recalculated for the final unit cell
     Results may differ from those at the preceding step.

     Parallelization info
     --------------------
     sticks:   dense  smooth     PW     G-vecs:    dense   smooth      PW
     Min         176     176     59                 3139     3139     609
     Max         177     177     60                 3140     3140     611
     Sum        1415    1415    479                25115    25115    4885

     Using Slab Decomposition



     bravais-lattice index     =            7
     lattice parameter (alat)  =       9.8266  a.u.
     unit-cell volume          =     260.2512 (a.u.)^3
     number of atoms/cell      =            2
     number of atomic types    =            1
     number of electrons       =        28.00
     number of Kohn-Sham states=           18
     kinetic-energy cutoff     =      80.0000  Ry
     charge density cutoff     =     320.0000  Ry
     scf convergence threshold =      1.0E-08
     mixing beta               =       0.4000
     number of iterations used =            8  plain     mixing
     press convergence thresh. =      5.0E-01
     Exchange-correlation= PBE
                           (   1   4   3   4   0   0   0)

     celldm(1)=   9.826580  celldm(2)=   0.000000  celldm(3)=   0.550000
     celldm(4)=   0.000000  celldm(5)=   0.000000  celldm(6)=   0.000000

     crystal axes: (cart. coord. in units of alat)
               a(1) = (   0.503615  -0.503615   0.270351 )  
               a(2) = (   0.503615   0.503615   0.270351 )  
               a(3) = (  -0.503615  -0.503615   0.270351 )  

     reciprocal axes: (cart. coord. in units 2 pi/alat)
               b(1) = (  0.992822 -0.992822  0.000000 )  
               b(2) = (  0.000000  0.992822  1.849446 )  
               b(3) = ( -0.992822  0.000000  1.849446 )  


     PseudoPot. # 1 for Ge read from file:
     ./Ge.upf
     MD5 check sum: 087fa14d6c89b52166990835c3b338da
     Pseudo is Norm-conserving + core correction, Zval = 14.0
     Generated using ONCVPSP code by D. R. Hamann
     Using radial grid of 1560 points,  6 beta functions with: 
                l(1) =   0
                l(2) =   0
                l(3) =   1
                l(4) =   1
                l(5) =   2
                l(6) =   2

     atomic species   valence    mass     pseudopotential
        Ge            14.00    72.63000     Ge( 1.00)

     16 Sym. Ops., with inversion, found ( 8 have fractional translation)



   Cartesian axes

     site n.     atom                  positions (alat units)
         1           Ge  tau(   1) = (   0.0000000   0.0000000   0.0000000  )
         2           Ge  tau(   2) = (   0.0000000   0.5036149   0.1351756  )

     number of k points=    30  Gaussian smearing, width (Ry)=  0.0100
                       cart. coord. in units 2pi/alat
        k(    1) = (   0.0000000   0.0000000   0.0000000), wk =   0.0092593
        k(    2) = (  -0.1654703   0.0000000   0.3082410), wk =   0.0740741
        k(    3) = (  -0.3309407   0.0000000   0.6164819), wk =   0.0740741
        k(    4) = (   0.4964110   0.0000000  -0.9247229), wk =   0.0370370
        k(    5) = (  -0.1654703   0.1654703   0.6164819), wk =   0.0740741
        k(    6) = (  -0.3309407   0.1654703   0.9247229), wk =   0.1481481
        k(    7) = (   0.4964110   0.1654703  -0.6164819), wk =   0.1481481
        k(    8) = (   0.3309407   0.1654703  -0.3082410), wk =   0.1481481
        k(    9) = (   0.1654703   0.1654703   0.0000000), wk =   0.0370370
        k(   10) = (  -0.3309407   0.3309407   1.2329638), wk =   0.0740741
        k(   11) = (   0.4964110   0.3309407  -0.3082410), wk =   0.1481481
        k(   12) = (   0.3309407   0.3309407  -0.0000000), wk =   0.0370370
        k(   13) = (   0.4964110  -0.4964110  -1.8494457), wk =   0.0185185
        k(   14) = (   0.0000000   0.0000000   0.6164819), wk =   0.0185185
        k(   15) = (  -0.1654703   0.0000000   0.9247229), wk =   0.0740741
        k(   16) = (   0.6618814   0.0000000  -0.6164819), wk =   0.0740741
        k(   17) = (   0.4964110   0.0000000  -0.3082410), wk =   0.0740741
        k(   18) = (   0.3309407   0.0000000   0.0000000), wk =   0.0370370
        k(   19) = (  -0.1654703   0.1654703   1.2329638), wk =   0.0740741
        k(   20) = (   0.6618814   0.1654703  -0.3082410), wk =   0.1481481
        k(   21) = (   0.4964110   0.1654703  -0.0000000), wk =   0.0740741
        k(   22) = (   0.6618814  -0.6618814  -1.8494457), wk =   0.0370370
        k(   23) = (   0.3309407  -0.6618814  -1.2329638), wk =   0.0740741
        k(   24) = (   0.4964110  -0.4964110  -1.2329638), wk =   0.0370370
        k(   25) = (   0.3309407  -0.4964110  -0.9247229), wk =   0.0740741
        k(   26) = (   0.0000000   0.0000000   1.2329638), wk =   0.0185185
        k(   27) = (   0.8273517   0.0000000  -0.3082410), wk =   0.0740741
        k(   28) = (   0.6618814   0.0000000  -0.0000000), wk =   0.0370370
        k(   29) = (   0.8273517  -0.8273517  -1.8494457), wk =   0.0370370
        k(   30) = (   0.0000000   0.0000000  -1.8494457), wk =   0.0092593

     Dense  grid:    25115 G-vectors     FFT dimensions: (  48,  48,  48)

     Estimated max dynamical RAM per process >       7.59 MB

     Estimated total dynamical RAM >     115.38 MB

     Initial potential from superposition of free atoms

     starting charge      27.9984, renormalised to      28.0000
     Starting wfcs are   18 randomized atomic wfcs

     total cpu time spent up to now is       63.3 secs

     Self-consistent Calculation

     iteration #  1     ecut=    80.00 Ry     beta= 0.40
     Davidson diagonalization with overlap
     ethr =  1.00E-06,  avg # of iterations = 12.1

     total cpu time spent up to now is       66.5 secs

     total energy              =    -357.25100532 Ry
     estimated scf accuracy    <       0.00767033 Ry

     iteration #  2     ecut=    80.00 Ry     beta= 0.40
     Davidson diagonalization with overlap
     ethr =  2.74E-05,  avg # of iterations =  1.0

     total cpu time spent up to now is       67.5 secs

     total energy              =    -357.25113132 Ry
     estimated scf accuracy    <       0.00207246 Ry

     iteration #  3     ecut=    80.00 Ry     beta= 0.40
     Davidson diagonalization with overlap
     ethr =  7.40E-06,  avg # of iterations =  2.0

     total cpu time spent up to now is       68.7 secs

     total energy              =    -357.25135803 Ry
     estimated scf accuracy    <       0.00015554 Ry

     iteration #  4     ecut=    80.00 Ry     beta= 0.40
     Davidson diagonalization with overlap
     ethr =  5.56E-07,  avg # of iterations =  2.0

     total cpu time spent up to now is       70.0 secs

     total energy              =    -357.25137248 Ry
     estimated scf accuracy    <       0.00001406 Ry

     iteration #  5     ecut=    80.00 Ry     beta= 0.40
     Davidson diagonalization with overlap
     ethr =  5.02E-08,  avg # of iterations =  2.0

     total cpu time spent up to now is       71.3 secs

     total energy              =    -357.25137469 Ry
     estimated scf accuracy    <       0.00000020 Ry

     iteration #  6     ecut=    80.00 Ry     beta= 0.40
     Davidson diagonalization with overlap
     ethr =  7.28E-10,  avg # of iterations =  2.6

     total cpu time spent up to now is       72.6 secs

     total energy              =    -357.25137476 Ry
     estimated scf accuracy    <       0.00000019 Ry

     iteration #  7     ecut=    80.00 Ry     beta= 0.40
     Davidson diagonalization with overlap
     ethr =  6.94E-10,  avg # of iterations =  1.2

     total cpu time spent up to now is       73.6 secs

     total energy              =    -357.25137476 Ry
     estimated scf accuracy    <       0.00000002 Ry

     iteration #  8     ecut=    80.00 Ry     beta= 0.40
     Davidson diagonalization with overlap
     ethr =  8.69E-11,  avg # of iterations =  2.0

     total cpu time spent up to now is       75.0 secs

     End of self-consistent calculation

          k = 0.0000 0.0000 0.0000 (  3119 PWs)   bands (ev):

   -13.0289 -13.0098 -12.9809 -12.9643 -12.8792 -12.8792 -12.8740 -12.8740
   -12.8149 -12.7527  -1.2480   7.3856   9.4536   9.4536  15.0489  18.9661
    18.9661  19.7470

          k =-0.1655 0.0000 0.3082 (  3144 PWs)   bands (ev):

   -13.0199 -12.9773 -12.9529 -12.9440 -12.9000 -12.8918 -12.8803 -12.8800
   -12.8202 -12.7627  -0.5847   6.9404   9.5056  11.1103  15.5689  16.2189
    16.3185  17.7099

          k =-0.3309 0.0000 0.6165 (  3141 PWs)   bands (ev):

   -13.0010 -12.9442 -12.9408 -12.9351 -12.9164 -12.9009 -12.8699 -12.8457
   -12.8338 -12.7834   1.3801   6.9499   9.9652  10.2409  12.1363  14.4860
    15.8524  16.2043

          k = 0.4964 0.0000-0.9247 (  3138 PWs)   bands (ev):

   -12.9925 -12.9618 -12.9575 -12.9285 -12.9121 -12.9024 -12.8441 -12.8259
   -12.8245 -12.7928   3.8563   5.5366   9.0290   9.7575  10.5212  14.2872
    15.1523  16.9932

          k =-0.1655 0.1655 0.6165 (  3153 PWs)   bands (ev):

   -13.0073 -12.9487 -12.9378 -12.9181 -12.9131 -12.9088 -12.8894 -12.8462
   -12.8286 -12.7742   1.0938   7.4644  10.5894  11.3298  12.2051  12.2091
    16.2684  16.4031

          k =-0.3309 0.1655 0.9247 (  3137 PWs)   bands (ev):

   -12.9999 -12.9626 -12.9450 -12.9212 -12.9195 -12.8973 -12.8534 -12.8435
   -12.8099 -12.7897   3.7420   6.0712   7.8525   9.7623  11.7360  13.6464
    15.3466  17.4039

          k = 0.4964 0.1655-0.6165 (  3146 PWs)   bands (ev):

   -12.9889 -12.9559 -12.9505 -12.9218 -12.9113 -12.8944 -12.8511 -12.8476
   -12.8444 -12.8035   2.2283   5.3550   9.0936  10.4090  12.2315  14.0282
    16.5629  17.1085

          k = 0.3309 0.1655-0.3082 (  3154 PWs)   bands (ev):

   -12.9999 -12.9815 -12.9610 -12.9342 -12.9005 -12.8862 -12.8729 -12.8711
   -12.8344 -12.7847   0.0008   4.9851   9.6295  12.7411  14.2193  15.5581
    16.3955  18.1462

          k = 0.1655 0.1655 0.0000 (  3156 PWs)   bands (ev):

   -13.0162 -13.0114 -12.9873 -12.9532 -12.8844 -12.8739 -12.8713 -12.8692
   -12.8226 -12.7664  -0.9539   5.6800   9.7758  10.5679  16.4895  16.9008
    17.6056  19.7203

          k =-0.3309 0.3309 1.2330 (  3143 PWs)   bands (ev):

   -12.9855 -12.9612 -12.9434 -12.9326 -12.8968 -12.8716 -12.8646 -12.8623
   -12.8387 -12.8119   3.5071   3.6958   8.7866  11.1814  11.9755  12.8061
    17.8163  18.0793

          k = 0.4964 0.3309-0.3082 (  3155 PWs)   bands (ev):

   -12.9845 -12.9766 -12.9637 -12.9274 -12.9024 -12.8771 -12.8672 -12.8597
   -12.8480 -12.8169   1.1618   2.8634  10.7163  12.3781  14.0630  14.7882
    15.7854  16.7616

          k = 0.3309 0.3309-0.0000 (  3152 PWs)   bands (ev):

   -13.0132 -13.0001 -12.9818 -12.9239 -12.9025 -12.8687 -12.8640 -12.8554
   -12.8430 -12.7993  -0.0744   3.3478  10.7311  11.8926  14.3880  15.3958
    19.3468  19.4909

          k = 0.4964-0.4964-1.8494 (  3160 PWs)   bands (ev):

   -13.0100 -13.0100 -12.9378 -12.9378 -12.8881 -12.8881 -12.8568 -12.8568
   -12.8324 -12.8324   1.3757   1.3757  12.2877  12.2877  13.4436  13.4436
    19.2309  19.2309

          k = 0.0000 0.0000 0.6165 (  3143 PWs)   bands (ev):

   -13.0095 -12.9413 -12.9360 -12.9360 -12.9107 -12.8995 -12.8995 -12.8529
   -12.8220 -12.7660   0.8047   9.0906  10.9459  10.9459  11.7650  11.8774
    15.8462  15.8462

          k =-0.1655 0.0000 0.9247 (  3137 PWs)   bands (ev):

   -12.9945 -12.9536 -12.9434 -12.9209 -12.9169 -12.9109 -12.8796 -12.8346
   -12.8081 -12.7804   3.2997   7.0355   8.2953  10.3074  10.9747  12.0215
    15.2563  16.4989

          k = 0.6619 0.0000-0.6165 (  3148 PWs)   bands (ev):

   -12.9812 -12.9496 -12.9386 -12.9321 -12.9023 -12.8975 -12.8702 -12.8494
   -12.8394 -12.8084   3.0160   5.2376   8.6212   8.6229  11.2509  14.0332
    17.2378  19.0591

          k = 0.4964 0.0000-0.3082 (  3146 PWs)   bands (ev):

   -12.9893 -12.9732 -12.9704 -12.9228 -12.8938 -12.8854 -12.8820 -12.8577
   -12.8438 -12.8060   0.5777   4.6922   7.8150  11.8825  13.9787  15.7675
    17.6172  19.3570

          k = 0.3309 0.0000 0.0000 (  3160 PWs)   bands (ev):

   -13.0138 -13.0026 -12.9925 -12.9433 -12.8795 -12.8781 -12.8745 -12.8613
   -12.8292 -12.7795  -0.6609   5.2286   8.1676  12.8030  14.2902  17.4756
    19.4413  19.4635

          k =-0.1655 0.1655 1.2330 (  3132 PWs)   bands (ev):

   -12.9815 -12.9515 -12.9181 -12.9161 -12.9097 -12.8998 -12.8946 -12.8503
   -12.8388 -12.8079   3.9844   4.4464   8.0568   9.2361   9.6631  14.4397
    18.7907  18.8365

          k = 0.6619 0.1655-0.3082 (  3146 PWs)   bands (ev):

   -12.9865 -12.9816 -12.9413 -12.9098 -12.9008 -12.8823 -12.8753 -12.8618
   -12.8531 -12.8299   1.7046   3.2710   8.1290   9.6994  13.3921  17.3130
    18.3904  19.6416

          k = 0.4964 0.1655-0.0000 (  3161 PWs)   bands (ev):

   -13.0138 -13.0028 -12.9708 -12.9174 -12.8959 -12.8726 -12.8678 -12.8528
   -12.8466 -12.8104   0.2124   3.5031   8.3132  11.7079  14.7675  18.2392
    19.0127  19.2313

          k = 0.6619-0.6619-1.8494 (  3150 PWs)   bands (ev):

   -13.0107 -13.0107 -12.9294 -12.9294 -12.8859 -12.8859 -12.8600 -12.8600
   -12.8386 -12.8386   1.6378   1.6378   9.6672   9.6672  16.4778  16.4778
    18.8924  18.8924

          k = 0.3309-0.6619-1.2330 (  3131 PWs)   bands (ev):

   -12.9965 -12.9589 -12.9384 -12.9347 -12.9124 -12.8783 -12.8658 -12.8474
   -12.8394 -12.7982   1.9551   5.2581  10.1741  10.5371  13.2198  13.6768
    16.4935  16.6178

          k = 0.4964-0.4964-1.2330 (  3140 PWs)   bands (ev):

   -12.9743 -12.9743 -12.9492 -12.9492 -12.8798 -12.8798 -12.8498 -12.8498
   -12.8313 -12.8313   3.3642   3.3642  10.1209  10.1209  14.7290  14.7290
    15.2098  15.2098

          k = 0.3309-0.4964-0.9247 (  3124 PWs)   bands (ev):

   -12.9970 -12.9714 -12.9574 -12.9405 -12.8966 -12.8631 -12.8614 -12.8253
   -12.8238 -12.8050   4.3824   5.5027   7.3718   8.3574  13.8749  15.6564
    16.4761  16.5575

          k = 0.0000 0.0000 1.2330 (  3116 PWs)   bands (ev):

   -12.9723 -12.9327 -12.9327 -12.9265 -12.9041 -12.9012 -12.9012 -12.8459
   -12.8414 -12.8101   4.3065   5.0375   8.1035   8.1035   8.4266  15.6852
    18.6473  18.6473

          k = 0.8274 0.0000-0.3082 (  3136 PWs)   bands (ev):

   -12.9865 -12.9826 -12.9118 -12.9001 -12.8935 -12.8874 -12.8812 -12.8709
   -12.8619 -12.8454   2.6827   3.5324   6.7331   7.5754  12.7980  19.1289
    20.8576  21.2316

          k = 0.6619 0.0000-0.0000 (  3134 PWs)   bands (ev):

   -13.0135 -13.0078 -12.9431 -12.9005 -12.8853 -12.8760 -12.8755 -12.8577
   -12.8526 -12.8369   1.0538   3.4875   6.6328   9.1149  17.6649  18.3969
    18.7819  20.9922

          k = 0.8274-0.8274-1.8494 (  3146 PWs)   bands (ev):

   -13.0116 -13.0116 -12.9085 -12.9085 -12.8808 -12.8808 -12.8673 -12.8673
   -12.8558 -12.8558   2.3419   2.3419   7.2192   7.2192  18.1238  18.1238
    20.3025  20.3025

          k = 0.0000 0.0000-1.8494 (  3124 PWs)   bands (ev):

   -13.0118 -13.0118 -12.8865 -12.8865 -12.8774 -12.8774 -12.8763 -12.8763
   -12.8715 -12.8715   2.9054   2.9054   6.0667   6.0667  17.9571  17.9571
    22.1355  22.1355

     the Fermi energy is    11.8557 ev

!    total energy              =    -357.25137477 Ry
     estimated scf accuracy    <          5.2E-09 Ry
     smearing contrib. (-TS)   =      -0.00078665 Ry
     internal energy E=F+TS    =    -357.25058812 Ry

     The total energy is F=E-TS. E is the sum of the following terms:
     one-electron contribution =    -140.78867174 Ry
     hartree contribution      =      91.89425507 Ry
     xc contribution           =     -87.25968787 Ry
     ewald contribution        =    -221.09648359 Ry

     convergence has been achieved in   8 iterations

     Forces acting on atoms (cartesian axes, Ry/au):

     atom    1 type  1   force =    -0.00000000    0.00000000    0.00000000
     atom    2 type  1   force =     0.00000000   -0.00000000   -0.00000000
     The non-local contrib.  to forces
     atom    1 type  1   force =     0.00000000   -0.00000000   -0.00000000
     atom    2 type  1   force =    -0.00000000    0.00000000    0.00000000
     The ionic contribution  to forces
     atom    1 type  1   force =     0.00000000   -0.00000000    0.00000000
     atom    2 type  1   force =    -0.00000000    0.00000000   -0.00000000
     The local contribution  to forces
     atom    1 type  1   force =    -0.00000000   -0.00000000    0.00000000
     atom    2 type  1   force =    -0.00000000    0.00000000    0.00000000
     The core correction contribution to forces
     atom    1 type  1   force =    -0.00000000    0.00000000   -0.00000000
     atom    2 type  1   force =     0.00000000    0.00000000    0.00000000
     The Hubbard contrib.    to forces
     atom    1 type  1   force =     0.00000000    0.00000000    0.00000000
     atom    2 type  1   force =     0.00000000    0.00000000    0.00000000
     The SCF correction term to forces
     atom    1 type  1   force =    -0.00000000    0.00000000   -0.00000000
     atom    2 type  1   force =     0.00000000    0.00000000   -0.00000000

     Total force =     0.000000     Total SCF correction =     0.000000


     Computing stress (Cartesian axis) and pressure

          total   stress  (Ry/bohr**3)                   (kbar)     P=       -0.66
  -0.00000484  -0.00000000  -0.00000000           -0.71       -0.00       -0.00
  -0.00000000  -0.00000484   0.00000000           -0.00       -0.71        0.00
  -0.00000000   0.00000000  -0.00000383           -0.00        0.00       -0.56


     Writing all to output data dir ./Ge_out/Ge_scf.save/

     init_run     :      1.89s CPU      2.00s WALL (       2 calls)
     electrons    :     55.95s CPU     62.37s WALL (       7 calls)
     update_pot   :      2.72s CPU      2.77s WALL (       5 calls)
     forces       :      2.15s CPU      2.21s WALL (       7 calls)
     stress       :      6.09s CPU      6.29s WALL (       7 calls)

     Called by init_run:
     wfcinit      :      0.69s CPU      0.76s WALL (       2 calls)
     potinit      :      0.36s CPU      0.38s WALL (       2 calls)
     hinit0       :      0.77s CPU      0.79s WALL (       2 calls)

     Called by electrons:
     c_bands      :     47.15s CPU     52.49s WALL (      48 calls)
     sum_band     :      7.84s CPU      8.59s WALL (      48 calls)
     v_of_rho     :      0.89s CPU      0.97s WALL (      51 calls)
     mix_rho      :      0.09s CPU      0.10s WALL (      48 calls)

     Called by c_bands:
     init_us_2    :      0.54s CPU      0.61s WALL (    1680 calls)
     init_us_2:cp :      0.53s CPU      0.60s WALL (    1680 calls)
     cegterg      :     44.81s CPU     49.38s WALL (     720 calls)

     Called by *egterg:
     cdiaghg      :      2.40s CPU      2.47s WALL (    2337 calls)
     h_psi        :     39.64s CPU     44.04s WALL (    2502 calls)
     g_psi        :      0.15s CPU      0.15s WALL (    1752 calls)

     Called by h_psi:
     h_psi:calbec :      0.91s CPU      1.00s WALL (    2502 calls)
     vloc_psi     :     37.81s CPU     42.04s WALL (    2502 calls)
     add_vuspsi   :      0.76s CPU      0.84s WALL (    2502 calls)

     General routines
     calbec       :      1.16s CPU      1.26s WALL (    3027 calls)
     fft          :      1.08s CPU      1.18s WALL (     687 calls)
     ffts         :      0.04s CPU      0.04s WALL (      48 calls)
     fftw         :     41.28s CPU     45.83s WALL (   84580 calls)

     Parallel routines

     PWSCF        :   1m 9.07s CPU   1m16.65s WALL


   This run was terminated on:  19: 4:25  26Apr2025            

=------------------------------------------------------------------------------=
   JOB DONE.
=------------------------------------------------------------------------------=
