
     Program PWSCF v.6.8 starts on 29Apr2025 at  6: 3: 3 

     This program is part of the open-source Quantum ESPRESSO suite
     for quantum simulation of materials; please cite
         "P. Giannozzi et al., J. Phys.:Condens. Matter 21 395502 (2009);
         "P. Giannozzi et al., J. Phys.:Condens. Matter 29 465901 (2017);
         "P. Giannozzi et al., J. Chem. Phys. 152 154105 (2020);
          URL http://www.quantum-espresso.org", 
     in publications or presentations arising from this work. More details at
     http://www.quantum-espresso.org/quote

     Parallel version (MPI & OpenMP), running on      56 processor cores
     Number of MPI processes:                56
     Threads/MPI process:                     1

     MPI processes distributed on     1 nodes
     R & G space division:  proc/nbgrp/npool/nimage =      56
     186206 MiB available memory on the printing compute node when the environment starts
 
     Reading input from surface_relax.in
Warning: card &CELL ignored
Warning: card / ignored
Warning: card &FCP ignored
Warning: card / ignored
Warning: card &RISM ignored
Warning: card / ignored

     Current dimensions of program PWSCF are:
     Max number of different atomic species (ntypx) = 10
     Max number of k-points (npk) =  40000
     Max angular momentum in pseudopotentials (lmaxx) =  4

     Subspace diagonalization in iterative solution of the eigenvalue problem:
     one sub-group per band group will be used
     scalapack distributed-memory algorithm (size of sub-group:  7*  7 procs)

 
     Parallelization info
     --------------------
     sticks:   dense  smooth     PW     G-vecs:    dense   smooth      PW
     Min         162     162     42                20242    20242    2732
     Max         163     163     43                20252    20252    2743
     Sum        9077    9077   2397              1133767  1133767  153281
 
     Using Slab Decomposition
 


     bravais-lattice index     =            0
     lattice parameter (alat)  =      30.8404  a.u.
     unit-cell volume          =   18061.3520 (a.u.)^3
     number of atoms/cell      =           64
     number of atomic types    =            1
     number of electrons       =       896.00
     number of Kohn-Sham states=          538
     kinetic-energy cutoff     =      60.0000  Ry
     charge density cutoff     =     240.0000  Ry
     scf convergence threshold =      1.0E-06
     mixing beta               =       0.4000
     number of iterations used =            8  plain     mixing
     energy convergence thresh.=      1.0E-04
     force convergence thresh. =      1.0E-03
     Exchange-correlation= PBE
                           (   1   4   3   4   0   0   0)
     nstep                     =          100


     celldm(1)=  30.840377  celldm(2)=   0.000000  celldm(3)=   0.000000
     celldm(4)=   0.000000  celldm(5)=   0.000000  celldm(6)=   0.000000

     crystal axes: (cart. coord. in units of alat)
               a(1) = (   1.000000   0.000000   0.000000 )  
               a(2) = (   0.000000   0.500000   0.000000 )  
               a(3) = (   0.000000   0.000000   1.231463 )  

     reciprocal axes: (cart. coord. in units 2 pi/alat)
               b(1) = (  1.000000  0.000000  0.000000 )  
               b(2) = (  0.000000  2.000000  0.000000 )  
               b(3) = (  0.000000  0.000000  0.812043 )  


     PseudoPot. # 1 for Ge read from file:
     ./Ge.upf
     MD5 check sum: 087fa14d6c89b52166990835c3b338da
     Pseudo is Norm-conserving + core correction, Zval = 14.0
     Generated using ONCVPSP code by D. R. Hamann
     Using radial grid of 1560 points,  6 beta functions with: 
                l(1) =   0
                l(2) =   0
                l(3) =   1
                l(4) =   1
                l(5) =   2
                l(6) =   2

     atomic species   valence    mass     pseudopotential
        Ge            14.00    72.63000     Ge( 1.00)

     No symmetry found



   Cartesian axes

     site n.     atom                  positions (alat units)
         1           Ge  tau(   1) = (   0.0001139  -0.0000516   0.3074291  )
         2           Ge  tau(   2) = (   0.1243604   0.0000370   0.3939077  )
         3           Ge  tau(   3) = (   0.1240029   0.1242562   0.4829100  )
         4           Ge  tau(   4) = (   0.0007286   0.1260733   0.5714466  )
         5           Ge  tau(   5) = (   0.0006763  -0.0004678   0.6597498  )
         6           Ge  tau(   6) = (   0.1259744  -0.0004107   0.7472648  )
         7           Ge  tau(   7) = (   0.1241705   0.1242597   0.8369382  )
         8           Ge  tau(   8) = (  -0.0006207   0.1244536   0.9239293  )
         9           Ge  tau(   9) = (  -0.0008808   0.2507098   0.3070254  )
        10           Ge  tau(  10) = (   0.1242339   0.2492273   0.3954042  )
        11           Ge  tau(  11) = (   0.1259868   0.3751400   0.4828160  )
        12           Ge  tau(  12) = (   0.0001523   0.3752892   0.5709866  )
        13           Ge  tau(  13) = (   0.0007697   0.2502773   0.6602209  )
        14           Ge  tau(  14) = (   0.1244685   0.2499764   0.7494189  )
        15           Ge  tau(  15) = (   0.1255741   0.3756494   0.8374799  )
        16           Ge  tau(  16) = (   0.0010957   0.3748487   0.9242091  )
        17           Ge  tau(  17) = (   0.2511608   0.0007076   0.3055775  )
        18           Ge  tau(  18) = (   0.3758884  -0.0002867   0.3955224  )
        19           Ge  tau(  19) = (   0.3762239   0.1242565   0.4830679  )
        20           Ge  tau(  20) = (   0.2493266   0.1255987   0.5719684  )
        21           Ge  tau(  21) = (   0.2492021   0.0005422   0.6595042  )
        22           Ge  tau(  22) = (   0.3758459  -0.0002964   0.7484551  )
        23           Ge  tau(  23) = (   0.3758249   0.1240476   0.8367054  )
        24           Ge  tau(  24) = (   0.2508970   0.1242370   0.9261233  )
        25           Ge  tau(  25) = (   0.2507056   0.2506008   0.3056284  )
        26           Ge  tau(  26) = (   0.3750084   0.2497090   0.3958458  )
        27           Ge  tau(  27) = (   0.3758336   0.3742165   0.4839385  )
        28           Ge  tau(  28) = (   0.2501101   0.3757297   0.5718178  )
        29           Ge  tau(  29) = (   0.2510072   0.2492138   0.6602878  )
        30           Ge  tau(  30) = (   0.3761754   0.2500562   0.7495341  )
        31           Ge  tau(  31) = (   0.3752308   0.3740968   0.8379030  )
        32           Ge  tau(  32) = (   0.2498665   0.3743469   0.9238728  )
        33           Ge  tau(  33) = (   0.5008879  -0.0003210   0.3067219  )
        34           Ge  tau(  34) = (   0.6256914  -0.0006884   0.3941685  )
        35           Ge  tau(  35) = (   0.6249467   0.1250277   0.4841448  )
        36           Ge  tau(  36) = (   0.4992691   0.1248067   0.5707058  )
        37           Ge  tau(  37) = (   0.4990752   0.0012186   0.6602449  )
        38           Ge  tau(  38) = (   0.6251595   0.0006808   0.7483833  )
        39           Ge  tau(  39) = (   0.6242958   0.1246330   0.8358276  )
        40           Ge  tau(  40) = (   0.4989041   0.1247498   0.9250024  )
        41           Ge  tau(  41) = (   0.4990471   0.2500990   0.3073415  )
        42           Ge  tau(  42) = (   0.6243323   0.2498822   0.3942618  )
        43           Ge  tau(  43) = (   0.6242449   0.3757294   0.4840156  )
        44           Ge  tau(  44) = (   0.4993699   0.3740905   0.5711779  )
        45           Ge  tau(  45) = (   0.4991812   0.2507437   0.6596378  )
        46           Ge  tau(  46) = (   0.6246716   0.2490340   0.7478783  )
        47           Ge  tau(  47) = (   0.6260851   0.3750164   0.8359292  )
        48           Ge  tau(  48) = (   0.4989286   0.3759833   0.9257380  )
        49           Ge  tau(  49) = (   0.7502301  -0.0004406   0.3058040  )
        50           Ge  tau(  50) = (   0.8743570  -0.0004498   0.3939627  )
        51           Ge  tau(  51) = (   0.8755039   0.1242014   0.4822139  )
        52           Ge  tau(  52) = (   0.7497028   0.1259277   0.5723547  )
        53           Ge  tau(  53) = (   0.7489011  -0.0000100   0.6590960  )
        54           Ge  tau(  54) = (   0.8751344   0.0002326   0.7481597  )
        55           Ge  tau(  55) = (   0.8750921   0.1243922   0.8360226  )
        56           Ge  tau(  56) = (   0.7499687   0.1258656   0.9252713  )
        57           Ge  tau(  57) = (   0.7488915   0.2505218   0.3064775  )
        58           Ge  tau(  58) = (   0.8740204   0.2499668   0.3939934  )
        59           Ge  tau(  59) = (   0.8757025   0.3740207   0.4837286  )
        60           Ge  tau(  60) = (   0.7490266   0.3741319   0.5706896  )
        61           Ge  tau(  61) = (   0.7499670   0.2497362   0.6604329  )
        62           Ge  tau(  62) = (   0.8740443   0.2510463   0.7482634  )
        63           Ge  tau(  63) = (   0.8738511   0.3739634   0.8374082  )
        64           Ge  tau(  64) = (   0.7493892   0.3756592   0.9257263  )

     number of k points=     2  Gaussian smearing, width (Ry)=  0.0100
                       cart. coord. in units 2pi/alat
        k(    1) = (   0.0000000   0.0000000   0.0000000), wk =   1.0000000
        k(    2) = (   0.0000000  -1.0000000   0.0000000), wk =   1.0000000

     Dense  grid:  1133767 G-vectors     FFT dimensions: ( 160,  80, 192)

     Estimated max dynamical RAM per process >     213.64 MB

     Estimated total dynamical RAM >      11.68 GB

     Initial potential from superposition of free atoms

     starting charge  895.94733, renormalised to  896.00000

     negative rho (up, down):  4.893E-05 0.000E+00
     Starting wfcs are  576 randomized atomic wfcs

     total cpu time spent up to now is        6.3 secs

     Self-consistent Calculation

     iteration #  1     ecut=    60.00 Ry     beta= 0.40
     Davidson diagonalization with overlap
     ethr =  1.00E-02,  avg # of iterations =  3.0

     Threshold (ethr) on eigenvalues was too large:
     Diagonalizing with lowered threshold

     Davidson diagonalization with overlap
     ethr =  2.29E-04,  avg # of iterations = 13.5

     negative rho (up, down):  1.491E-05 0.000E+00

     total cpu time spent up to now is       51.6 secs

     total energy              =  -11428.59768217 Ry
     estimated scf accuracy    <       2.26142906 Ry

     iteration #  2     ecut=    60.00 Ry     beta= 0.40
     Davidson diagonalization with overlap
     ethr =  2.52E-04,  avg # of iterations = 10.0

     negative rho (up, down):  8.314E-06 0.000E+00

     total cpu time spent up to now is       73.1 secs

     total energy              =  -11427.16116517 Ry
     estimated scf accuracy    <      22.95361733 Ry

     iteration #  3     ecut=    60.00 Ry     beta= 0.40
     Davidson diagonalization with overlap
     ethr =  2.52E-04,  avg # of iterations =  7.5

     negative rho (up, down):  1.589E-07 0.000E+00

     total cpu time spent up to now is       92.7 secs

     total energy              =  -11429.09577941 Ry
     estimated scf accuracy    <       0.90047342 Ry

     iteration #  4     ecut=    60.00 Ry     beta= 0.40
     Davidson diagonalization with overlap
     ethr =  1.00E-04,  avg # of iterations =  3.0

     negative rho (up, down):  3.225E-08 0.000E+00

     total cpu time spent up to now is      107.8 secs

     total energy              =  -11429.02984485 Ry
     estimated scf accuracy    <       1.18075250 Ry

     iteration #  5     ecut=    60.00 Ry     beta= 0.40
     Davidson diagonalization with overlap
     ethr =  1.00E-04,  avg # of iterations =  2.5

     total cpu time spent up to now is      122.7 secs

     total energy              =  -11429.06824005 Ry
     estimated scf accuracy    <       1.43845595 Ry

     iteration #  6     ecut=    60.00 Ry     beta= 0.40
     Davidson diagonalization with overlap
     ethr =  1.00E-04,  avg # of iterations =  3.0

     total cpu time spent up to now is      137.8 secs

     total energy              =  -11429.06519312 Ry
     estimated scf accuracy    <       2.05825782 Ry

     iteration #  7     ecut=    60.00 Ry     beta= 0.40
     Davidson diagonalization with overlap
     ethr =  1.00E-04,  avg # of iterations =  1.5

     total cpu time spent up to now is      151.3 secs

     total energy              =  -11429.14534853 Ry
     estimated scf accuracy    <       0.03368652 Ry

     iteration #  8     ecut=    60.00 Ry     beta= 0.40
     Davidson diagonalization with overlap
     c_bands:  2 eigenvalues not converged
     ethr =  3.76E-06,  avg # of iterations = 16.5

     total cpu time spent up to now is      174.6 secs

     total energy              =  -11429.14707040 Ry
     estimated scf accuracy    <       0.03657352 Ry

     iteration #  9     ecut=    60.00 Ry     beta= 0.40
     Davidson diagonalization with overlap
     ethr =  3.76E-06,  avg # of iterations =  6.0

     total cpu time spent up to now is      190.5 secs

     total energy              =  -11429.14912784 Ry
     estimated scf accuracy    <       0.01171943 Ry

     iteration # 10     ecut=    60.00 Ry     beta= 0.40
     Davidson diagonalization with overlap
     ethr =  1.31E-06,  avg # of iterations =  2.0

     total cpu time spent up to now is      205.2 secs

     total energy              =  -11429.15001698 Ry
     estimated scf accuracy    <       0.00102729 Ry

     iteration # 11     ecut=    60.00 Ry     beta= 0.40
     Davidson diagonalization with overlap
     ethr =  1.15E-07,  avg # of iterations =  3.5

     total cpu time spent up to now is      220.6 secs

     total energy              =  -11429.14985313 Ry
     estimated scf accuracy    <       0.00434759 Ry

     iteration # 12     ecut=    60.00 Ry     beta= 0.40
     Davidson diagonalization with overlap
     ethr =  1.15E-07,  avg # of iterations =  2.0

     total cpu time spent up to now is      235.2 secs

     total energy              =  -11429.15014428 Ry
     estimated scf accuracy    <       0.00058025 Ry

     iteration # 13     ecut=    60.00 Ry     beta= 0.40
     Davidson diagonalization with overlap
     ethr =  6.48E-08,  avg # of iterations =  2.0

     total cpu time spent up to now is      249.8 secs

     total energy              =  -11429.15018090 Ry
     estimated scf accuracy    <       0.00014949 Ry

     iteration # 14     ecut=    60.00 Ry     beta= 0.40
     Davidson diagonalization with overlap
     ethr =  1.67E-08,  avg # of iterations =  2.0

     total cpu time spent up to now is      264.5 secs

     total energy              =  -11429.15018594 Ry
     estimated scf accuracy    <       0.00029113 Ry

     iteration # 15     ecut=    60.00 Ry     beta= 0.40
     Davidson diagonalization with overlap
     ethr =  1.67E-08,  avg # of iterations =  2.0

     total cpu time spent up to now is      279.0 secs

     total energy              =  -11429.15020643 Ry
     estimated scf accuracy    <       0.00000770 Ry

     iteration # 16     ecut=    60.00 Ry     beta= 0.40
     Davidson diagonalization with overlap
     ethr =  8.59E-10,  avg # of iterations =  3.5

     total cpu time spent up to now is      294.6 secs

     total energy              =  -11429.15020668 Ry
     estimated scf accuracy    <       0.00000540 Ry

     iteration # 17     ecut=    60.00 Ry     beta= 0.40
     Davidson diagonalization with overlap
     ethr =  6.03E-10,  avg # of iterations =  2.0

     total cpu time spent up to now is      309.2 secs

     total energy              =  -11429.15020682 Ry
     estimated scf accuracy    <       0.00001641 Ry

     iteration # 18     ecut=    60.00 Ry     beta= 0.40
     Davidson diagonalization with overlap
     ethr =  6.03E-10,  avg # of iterations =  2.0

     total cpu time spent up to now is      323.7 secs

     total energy              =  -11429.15020767 Ry
     estimated scf accuracy    <       0.00000259 Ry

     iteration # 19     ecut=    60.00 Ry     beta= 0.40
     Davidson diagonalization with overlap
     ethr =  2.89E-10,  avg # of iterations =  2.0

     total cpu time spent up to now is      338.3 secs

     total energy              =  -11429.15020780 Ry
     estimated scf accuracy    <       0.00000235 Ry

     iteration # 20     ecut=    60.00 Ry     beta= 0.40
     Davidson diagonalization with overlap
     ethr =  2.62E-10,  avg # of iterations =  1.5

     total cpu time spent up to now is      351.8 secs

     total energy              =  -11429.15020786 Ry
     estimated scf accuracy    <       0.00000217 Ry

     iteration # 21     ecut=    60.00 Ry     beta= 0.40
     Davidson diagonalization with overlap
     ethr =  2.42E-10,  avg # of iterations =  1.0

     total cpu time spent up to now is      364.3 secs

     total energy              =  -11429.15020791 Ry
     estimated scf accuracy    <       0.00000304 Ry

     iteration # 22     ecut=    60.00 Ry     beta= 0.40
     Davidson diagonalization with overlap
     ethr =  2.42E-10,  avg # of iterations =  1.0

     total cpu time spent up to now is      376.9 secs

     End of self-consistent calculation

          k = 0.0000 0.0000 0.0000 (141623 PWs)   bands (ev):

   -21.8737 -21.8714 -21.8693 -21.8671 -21.8659 -21.8638 -21.8633 -21.8615
   -21.8575 -21.8550 -21.8547 -21.8533 -21.8490 -21.8474 -21.8448 -21.8358
   -21.8343 -21.8340 -21.8314 -21.8305 -21.8289 -21.8278 -21.8257 -21.8247
   -21.8228 -21.8227 -21.8201 -21.8197 -21.8158 -21.8124 -21.8110 -21.8091
   -21.8085 -21.8067 -21.8053 -21.8016 -21.7977 -21.7964 -21.7944 -21.7933
   -21.7925 -21.7906 -21.7858 -21.7847 -21.7834 -21.7827 -21.7819 -21.7813
   -21.7806 -21.7805 -21.7780 -21.7762 -21.7750 -21.7724 -21.7712 -21.7687
   -21.7681 -21.7662 -21.7641 -21.7629 -21.7614 -21.7610 -21.7591 -21.7552
   -21.7539 -21.7528 -21.7520 -21.7502 -21.7489 -21.7482 -21.7475 -21.7465
   -21.7452 -21.7433 -21.7412 -21.7393 -21.7374 -21.7369 -21.7365 -21.7356
   -21.7335 -21.7312 -21.7303 -21.7284 -21.7252 -21.7223 -21.7194 -21.7190
   -21.7150 -21.7146 -21.7124 -21.7117 -21.7062 -21.7038 -21.7026 -21.7023
   -21.6998 -21.6986 -21.6983 -21.6973 -21.6959 -21.6938 -21.6922 -21.6908
   -21.6906 -21.6898 -21.6887 -21.6879 -21.6856 -21.6852 -21.6847 -21.6827
   -21.6822 -21.6818 -21.6809 -21.6789 -21.6783 -21.6776 -21.6762 -21.6736
   -21.6728 -21.6726 -21.6723 -21.6718 -21.6703 -21.6697 -21.6644 -21.6589
   -21.6581 -21.6555 -21.6553 -21.6542 -21.6536 -21.6531 -21.6526 -21.6508
   -21.6486 -21.6481 -21.6466 -21.6427 -21.6419 -21.6397 -21.6388 -21.6381
   -21.6372 -21.6366 -21.6352 -21.6348 -21.6340 -21.6338 -21.6335 -21.6331
   -21.6322 -21.6320 -21.6309 -21.6294 -21.6285 -21.6275 -21.6273 -21.6268
   -21.6234 -21.6232 -21.6228 -21.6214 -21.6213 -21.6207 -21.6206 -21.6196
   -21.6187 -21.6181 -21.6172 -21.6167 -21.6160 -21.6157 -21.6153 -21.6152
   -21.6142 -21.6127 -21.6125 -21.6122 -21.6117 -21.6104 -21.6098 -21.6091
   -21.6066 -21.6054 -21.6042 -21.6038 -21.6029 -21.6017 -21.6007 -21.6005
   -21.5996 -21.5981 -21.5968 -21.5955 -21.5948 -21.5933 -21.5922 -21.5906
   -21.5895 -21.5880 -21.5860 -21.5840 -21.5793 -21.5762 -21.5754 -21.5732
   -21.5707 -21.5700 -21.5690 -21.5678 -21.5667 -21.5665 -21.5629 -21.5626
   -21.5596 -21.5577 -21.5571 -21.5571 -21.5569 -21.5548 -21.5470 -21.5458
   -21.5451 -21.5414 -21.5385 -21.5379 -21.5333 -21.5312 -21.5302 -21.5284
   -21.5281 -21.5275 -21.5243 -21.5222 -21.5210 -21.5208 -21.5166 -21.5142
   -21.4462 -21.4405 -21.4339 -21.4330 -21.4313 -21.4285 -21.4279 -21.4263
   -21.4256 -21.4232 -21.4231 -21.4214 -21.4200 -21.4194 -21.4186 -21.4185
   -21.4175 -21.4155 -21.4125 -21.4113 -21.4107 -21.4093 -21.4085 -21.4065
   -21.4056 -21.4051 -21.4042 -21.4006 -21.3995 -21.3984 -21.3977 -21.3944
   -21.3860 -21.3854 -21.3844 -21.3824 -21.3807 -21.3802 -21.3795 -21.3770
   -21.3766 -21.3753 -21.3740 -21.3711 -21.3701 -21.3700 -21.3696 -21.3693
   -21.3687 -21.3682 -21.3679 -21.3662 -21.3659 -21.3655 -21.3641 -21.3635
   -21.3617 -21.3610 -21.3605 -21.3593 -21.3587 -21.3572 -21.3562 -21.3535
   -21.3350 -21.3309 -21.3290 -21.3257 -21.3226 -21.3214 -21.3199 -21.3181
   -21.3141 -21.3122 -21.3113 -21.3100 -21.3100 -21.3092 -21.3038 -21.2990
    -9.0352  -8.5782  -8.5635  -8.3695  -7.9571  -7.9321  -7.4346  -7.4280
    -7.4170  -7.3912  -7.3505  -7.2600  -7.0665  -7.0580  -7.0219  -7.0195
    -6.9591  -6.9322  -6.9162  -6.9099  -6.5438  -6.5351  -6.5073  -6.4968
    -6.1118  -5.6351  -5.6083  -5.5955  -5.5773  -5.5512  -5.5431  -5.3680
    -5.3594  -5.1839  -5.1227  -4.9296  -4.9189  -4.7273  -4.7239  -4.5121
    -4.1942  -4.1654  -4.1588  -4.1379  -3.9467  -3.8984  -3.8810  -3.7690
    -3.5045  -3.4965  -3.4650  -3.3106  -3.3069  -3.2855  -3.2765  -2.7749
    -2.7620  -2.6907  -2.2498  -2.2152  -1.1199  -1.0879  -0.7662  -0.5863
    -0.5719  -0.3227  -0.3183  -0.3007  -0.2983  -0.2735  -0.2695  -0.2417
    -0.2330  -0.0364  -0.0319  -0.0255  -0.0229   0.0036   0.0404   0.0504
     0.0917   0.1801   0.1849   0.3729   0.3756   0.4319   0.4684   0.7790
     0.7842   0.7970   0.8005   0.8561   0.8562   1.0765   1.1568   1.1706
     1.2351   1.4143   1.4549   1.4749   1.6014   1.6251   1.6863   1.7076
     1.7228   1.7906   1.8147   1.8210   1.8428   1.8990   1.9048   1.9306
     2.0178   2.0183   2.0708   2.0771   2.1799   2.2289   2.2499   2.3189
     2.3225   2.3314   2.3385   2.3423   2.3610   2.3632   2.4862   2.4883
     2.4946   2.4965   2.6980   2.7182   2.7427   2.8667   2.8715   3.2625
     3.7283   3.9621   3.9938   4.1534   4.1610   4.3283   4.3584   4.4876
     4.4971   4.5087   4.5717   4.5786   4.6177   4.6240   4.6398   4.6624
     4.6674   4.6921   4.7837   4.7949   4.9309   4.9317   4.9329   4.9535
     4.9714   5.0275   5.0324   5.0478   5.0561   5.0674   5.0773   5.0954
     5.2134   5.2712   5.2866   5.3944   5.8962   5.9031   5.9195   5.9250
     6.0928   6.1087   6.1997   6.2038   6.2877   6.4237   6.4565   6.7146
     6.7453   6.7782   6.8168   6.9794   7.0022   7.0078   7.0291   7.0427
     7.0526   7.0691   7.1300   7.1412   7.1567   7.1809   7.1917   7.2040
     7.2723   7.3623   7.4300   7.4411   7.4481   7.4670   7.4684   7.4811
     7.4911   7.5650   7.5789   7.6410   7.6491   7.6567   7.7528   7.7635
     7.7726   7.8487

          k = 0.0000-1.0000 0.0000 (141742 PWs)   bands (ev):

   -21.8737 -21.8711 -21.8695 -21.8693 -21.8658 -21.8626 -21.8616 -21.8612
   -21.8587 -21.8578 -21.8555 -21.8542 -21.8504 -21.8498 -21.8469 -21.8444
   -21.8394 -21.8385 -21.8376 -21.8365 -21.8353 -21.8344 -21.8337 -21.8319
   -21.8231 -21.8225 -21.8199 -21.8192 -21.8184 -21.8141 -21.8139 -21.8108
   -21.8002 -21.7981 -21.7970 -21.7961 -21.7955 -21.7948 -21.7939 -21.7932
   -21.7921 -21.7897 -21.7894 -21.7890 -21.7884 -21.7883 -21.7847 -21.7841
   -21.7822 -21.7816 -21.7794 -21.7770 -21.7748 -21.7738 -21.7723 -21.7714
   -21.7706 -21.7697 -21.7660 -21.7629 -21.7622 -21.7606 -21.7585 -21.7580
   -21.7569 -21.7554 -21.7535 -21.7528 -21.7512 -21.7492 -21.7439 -21.7417
   -21.7380 -21.7363 -21.7360 -21.7343 -21.7331 -21.7317 -21.7304 -21.7297
   -21.7288 -21.7286 -21.7272 -21.7268 -21.7253 -21.7240 -21.7227 -21.7226
   -21.7062 -21.7051 -21.7032 -21.7016 -21.7009 -21.6999 -21.6993 -21.6975
   -21.6972 -21.6970 -21.6956 -21.6935 -21.6926 -21.6923 -21.6916 -21.6915
   -21.6902 -21.6898 -21.6894 -21.6883 -21.6878 -21.6872 -21.6868 -21.6860
   -21.6857 -21.6846 -21.6838 -21.6831 -21.6814 -21.6796 -21.6758 -21.6739
   -21.6732 -21.6718 -21.6713 -21.6694 -21.6670 -21.6663 -21.6657 -21.6648
   -21.6638 -21.6632 -21.6617 -21.6611 -21.6578 -21.6567 -21.6562 -21.6515
   -21.6491 -21.6477 -21.6470 -21.6429 -21.6419 -21.6410 -21.6400 -21.6393
   -21.6382 -21.6371 -21.6370 -21.6368 -21.6361 -21.6358 -21.6351 -21.6348
   -21.6342 -21.6334 -21.6330 -21.6326 -21.6317 -21.6313 -21.6310 -21.6300
   -21.6286 -21.6285 -21.6271 -21.6266 -21.6234 -21.6225 -21.6213 -21.6209
   -21.6202 -21.6192 -21.6189 -21.6178 -21.6170 -21.6168 -21.6162 -21.6153
   -21.6148 -21.6142 -21.6128 -21.6123 -21.6115 -21.6110 -21.6097 -21.6072
   -21.6069 -21.6063 -21.6053 -21.6035 -21.6023 -21.6019 -21.6015 -21.6002
   -21.5997 -21.5992 -21.5954 -21.5932 -21.5926 -21.5922 -21.5910 -21.5898
   -21.5883 -21.5872 -21.5869 -21.5855 -21.5833 -21.5789 -21.5726 -21.5722
   -21.5714 -21.5698 -21.5683 -21.5679 -21.5664 -21.5648 -21.5625 -21.5600
   -21.5594 -21.5567 -21.5541 -21.5531 -21.5515 -21.5510 -21.5482 -21.5471
   -21.5460 -21.5418 -21.5393 -21.5387 -21.5329 -21.5307 -21.5300 -21.5287
   -21.5279 -21.5274 -21.5240 -21.5217 -21.5205 -21.5200 -21.5164 -21.5139
   -21.4521 -21.4467 -21.4433 -21.4422 -21.4368 -21.4364 -21.4344 -21.4336
   -21.4329 -21.4321 -21.4286 -21.4273 -21.4266 -21.4244 -21.4205 -21.4204
   -21.4119 -21.4108 -21.4093 -21.4076 -21.4069 -21.4049 -21.4033 -21.4024
   -21.4013 -21.3986 -21.3965 -21.3962 -21.3957 -21.3954 -21.3933 -21.3930
   -21.3837 -21.3816 -21.3805 -21.3798 -21.3789 -21.3783 -21.3768 -21.3767
   -21.3762 -21.3754 -21.3744 -21.3732 -21.3726 -21.3714 -21.3710 -21.3694
   -21.3681 -21.3679 -21.3677 -21.3668 -21.3660 -21.3650 -21.3643 -21.3633
   -21.3629 -21.3619 -21.3611 -21.3608 -21.3607 -21.3604 -21.3582 -21.3571
   -21.3350 -21.3311 -21.3281 -21.3260 -21.3223 -21.3205 -21.3184 -21.3175
   -21.3138 -21.3135 -21.3130 -21.3117 -21.3113 -21.3096 -21.3063 -21.3061
    -8.5815  -8.5735  -8.1235  -8.1156  -8.0976  -8.0897  -7.9640  -7.9606
    -7.5460  -7.5289  -7.5151  -7.4964  -7.1113  -7.1059  -6.9413  -6.9246
    -6.8654  -6.8540  -6.7766  -6.7695  -6.7261  -6.7116  -6.7047  -6.6897
    -6.2907  -6.2680  -5.7819  -5.7737  -5.7630  -5.7204  -4.9913  -4.9756
    -4.9399  -4.9264  -4.7281  -4.7138  -4.7089  -4.7010  -4.3051  -4.2824
    -4.1700  -4.1532  -4.1185  -4.1004  -3.9434  -3.9196  -3.6525  -3.6493
    -3.6482  -3.6408  -3.1508  -3.1422  -2.6566  -2.6393  -2.6377  -2.6045
    -2.0573  -2.0547  -1.9226  -1.9151  -1.8995  -1.8734  -1.1386  -1.1328
    -0.6056  -0.6013  -0.5968  -0.5933  -0.5573  -0.5565  -0.5516  -0.5449
    -0.3352  -0.3249  -0.3106  -0.3059  -0.1641  -0.1590   0.1654   0.1682
     0.1753   0.1783   0.1829   0.1910   0.2255   0.2295   0.3866   0.3910
     0.3978   0.4079   0.4948   0.5092   0.8050   0.8157   0.8465   0.8641
     0.9152   0.9257   1.0704   1.0781   1.0840   1.0974   1.3652   1.3797
     1.4108   1.4188   1.4321   1.4397   1.9346   1.9356   1.9744   1.9763
     2.0413   2.0645   2.1165   2.1223   2.3876   2.3924   2.3998   2.4091
     2.4584   2.4617   2.4743   2.4831   2.5440   2.5716   2.6105   2.6192
     2.9237   2.9303   3.1424   3.1486   3.1510   3.1580   3.2595   3.2629
     3.4535   3.4621   3.4865   3.4914   3.4940   3.5041   3.7545   3.7594
     4.4561   4.4724   4.6604   4.6748   4.7496   4.7713   4.9383   4.9701
     5.0920   5.0993   5.1914   5.1970   5.2152   5.2238   5.2287   5.2442
     5.5619   5.5725   5.5890   5.5923   5.6318   5.6492   5.7864   5.7992
     6.0213   6.0264   6.1203   6.1389   6.1547   6.1587   6.4289   6.4351
     6.4410   6.4479   6.5871   6.6162   6.6934   6.6979   6.8145   6.8329
     6.8341   6.8429   6.8474   6.8564   6.9080   6.9141   7.0332   7.0533
     7.0696   7.0785   7.5077   7.5195   7.5342   7.5455   7.6272   7.6311
     7.6415   7.6432   7.6453   7.6469   7.6540   7.6578   7.6601   7.6669
     7.6715   7.6805   7.9324   7.9674   7.9710   7.9805   8.0637   8.0782
     8.1279   8.1510

     the Fermi energy is     2.6108 ev

!    total energy              =  -11429.15020777 Ry
     estimated scf accuracy    <       0.00000034 Ry
     smearing contrib. (-TS)   =      -0.02557033 Ry
     internal energy E=F+TS    =  -11429.12463743 Ry

     The total energy is F=E-TS. E is the sum of the following terms:
     one-electron contribution =  -30701.42615846 Ry
     hartree contribution      =   15751.70180822 Ry
     xc contribution           =   -2788.15529669 Ry
     ewald contribution        =    6308.75500949 Ry

     convergence has been achieved in  22 iterations

     Forces acting on atoms (cartesian axes, Ry/au):

     atom    1 type  1   force =    -0.00351284   -0.00032047   -0.01234206
     atom    2 type  1   force =     0.00854357   -0.00117978    0.00914626
     atom    3 type  1   force =     0.00623326    0.00123439    0.00064345
     atom    4 type  1   force =    -0.00610283   -0.00621408    0.00810111
     atom    5 type  1   force =    -0.00299429    0.00512188   -0.00570719
     atom    6 type  1   force =    -0.00524533    0.00192417    0.00438271
     atom    7 type  1   force =     0.00775655   -0.00105006   -0.00775164
     atom    8 type  1   force =     0.00023889    0.00010607    0.01167805
     atom    9 type  1   force =     0.00301295    0.00050284   -0.00908016
     atom   10 type  1   force =     0.00488657    0.00205915    0.00266550
     atom   11 type  1   force =    -0.00358052   -0.00128778    0.00068339
     atom   12 type  1   force =     0.00465022   -0.00268318    0.00624687
     atom   13 type  1   force =    -0.00581355    0.00294406   -0.00452796
     atom   14 type  1   force =     0.00685653   -0.00045746   -0.00230717
     atom   15 type  1   force =    -0.00131908   -0.00085409   -0.01528791
     atom   16 type  1   force =    -0.00687328    0.00006447    0.00938734
     atom   17 type  1   force =    -0.00180043   -0.00019225   -0.00469804
     atom   18 type  1   force =    -0.00215978   -0.00379018    0.00411031
     atom   19 type  1   force =    -0.01078509    0.00217159    0.00167557
     atom   20 type  1   force =     0.00370200   -0.00311385   -0.00210391
     atom   21 type  1   force =     0.01014975    0.00022963   -0.00248459
     atom   22 type  1   force =    -0.00922759   -0.00335899   -0.00096499
     atom   23 type  1   force =    -0.00660563    0.00255576   -0.00910486
     atom   24 type  1   force =    -0.00422888    0.00018552    0.00424716
     atom   25 type  1   force =    -0.00417339    0.00033931   -0.00366781
     atom   26 type  1   force =    -0.00421427   -0.00134803    0.00554201
     atom   27 type  1   force =    -0.00599260    0.00350724   -0.00155245
     atom   28 type  1   force =     0.00202574   -0.00611957    0.00540670
     atom   29 type  1   force =    -0.00412546    0.00793347   -0.00051904
     atom   30 type  1   force =    -0.00484364   -0.00405459   -0.00356845
     atom   31 type  1   force =    -0.00099855    0.00518536   -0.01300872
     atom   32 type  1   force =     0.00195410   -0.00041201    0.01411153
     atom   33 type  1   force =    -0.00256365    0.00018535   -0.00803360
     atom   34 type  1   force =     0.00047871    0.00505927    0.01300872
     atom   35 type  1   force =     0.00019038   -0.00156976   -0.00650919
     atom   36 type  1   force =     0.00484771    0.00493910    0.01241454
     atom   37 type  1   force =     0.00714084   -0.00894916   -0.00908247
     atom   38 type  1   force =    -0.00416329   -0.00444411   -0.00403766
     atom   39 type  1   force =     0.00101133    0.00176884   -0.00041157
     atom   40 type  1   force =     0.00760159   -0.00053426    0.01036526
     atom   41 type  1   force =     0.00166510    0.00013205   -0.00964023
     atom   42 type  1   force =    -0.00037162    0.00099786    0.01433193
     atom   43 type  1   force =    -0.00046952   -0.00530604   -0.00599655
     atom   44 type  1   force =     0.00354686    0.01108128    0.01135483
     atom   45 type  1   force =     0.00412510   -0.00780572   -0.00489710
     atom   46 type  1   force =    -0.00171936    0.00468580   -0.00052309
     atom   47 type  1   force =    -0.00800284   -0.00196731   -0.00457750
     atom   48 type  1   force =     0.01076024    0.00110812    0.00583619
     atom   49 type  1   force =    -0.00123453   -0.00026862   -0.01042143
     atom   50 type  1   force =     0.00130627   -0.00404494    0.01263599
     atom   51 type  1   force =    -0.00270031    0.00345302    0.00469331
     atom   52 type  1   force =     0.00506986   -0.00476577   -0.00083295
     atom   53 type  1   force =     0.00603978   -0.00204556   -0.00363922
     atom   54 type  1   force =    -0.00190010   -0.00684556   -0.00303351
     atom   55 type  1   force =    -0.00428834    0.00523960   -0.00845621
     atom   56 type  1   force =    -0.00147077    0.00065516    0.00551612
     atom   57 type  1   force =     0.00084811    0.00064813   -0.01022004
     atom   58 type  1   force =    -0.00055872   -0.00210863    0.01151731
     atom   59 type  1   force =    -0.00523897    0.00378002   -0.00290759
     atom   60 type  1   force =     0.00534037    0.00247306    0.00816908
     atom   61 type  1   force =    -0.00236768    0.00410521   -0.00643607
     atom   62 type  1   force =     0.00726290   -0.00712261   -0.00141766
     atom   63 type  1   force =     0.00402687    0.00772103   -0.00793520
     atom   64 type  1   force =     0.00037463    0.00011658    0.00981459

     Total force =     0.079319     Total SCF correction =     0.003646

     BFGS Geometry Optimization
     Energy error            =      0.0E+00 Ry
     Gradient error          =      1.5E-02 Ry/Bohr

     number of scf cycles    =   1
     number of bfgs steps    =   0

     energy             new  =  -11429.1502077661 Ry

     new trust radius        =       0.0162575227 bohr
     new conv_thr            =       0.0000010000 Ry


ATOMIC_POSITIONS (angstrom)
Ge            0.0000005343       -0.0010117021        5.0107194492
Ge            2.0340860545       -0.0000204420        6.4334226125
Ge            2.0270282860        2.0285177062        7.8814429597
Ge            0.0086619777        2.0542309202        9.3303100790
Ge            0.0094531161       -0.0049239508       10.7641125046
Ge            2.0531301696       -0.0056852115       12.1976991503
Ge            2.0305697553        2.0273659860       13.6547491520
Ge           -0.0100039005        2.0311411549       15.0847293484
Ge           -0.0127800440        4.0918563304        5.0058572929
Ge            2.0300857415        4.0684849914        6.4544163309
Ge            2.0542129396        6.1216131927        7.8799298650
Ge            0.0049469171        6.1233098001        9.3218207683
Ge            0.0094853116        4.0860897476       10.7724257525
Ge            2.0349575772        4.0793794353       12.2293140753
Ge            2.0486737309        6.1301554814       13.6596029530
Ge            0.0142440350        6.1175733369       15.0880830137
Ge            4.0979975340        0.0114463919        4.9845464834
Ge            6.1333651284       -0.0066852422        6.4571110656
Ge            6.1342754997        2.0290190906        7.8845660192
Ge            4.0709746278        2.0481256872        9.3334243290
Ge            4.0723546183        0.0089700496       10.7618096058
Ge            6.1289306520       -0.0066144217       12.2142950743
Ge            6.1299762667        2.0258122050       13.6502347794
Ge            4.0924065536        2.0276489538       15.1166026597
Ge            4.0893137076        4.0899901967        4.9859214015
Ge            6.1179155004        4.0745428650        6.4631452316
Ge            6.1304431841        6.1090788618        7.8970664748
Ge            4.0828741672        6.1286799674        9.3349415571
Ge            4.0942607562        4.0713733547       10.7756378373
Ge            6.1366294008        4.0787784000       12.2305267826
Ge            6.1232468087        6.1080136520       13.6677135107
Ge            4.0788607024        6.1091320809       15.0850935193
Ge            8.1731464371       -0.0051407300        5.0014581374
Ge           10.2115525045       -0.0085581307        6.4397234853
Ge           10.1992464649        2.0396238452        7.8978100235
Ge            8.1506498689        2.0394620951        9.3205023836
Ge            8.1486988485        0.0151517587       10.7704072034
Ge           10.2004153496        0.0087584473       12.2114972991
Ge           10.1890579198        2.0349493745       13.6405095677
Ge            8.1461496813        2.0356366943       15.1015467168
Ge            8.1453418053        4.0816915062        5.0107198236
Ge           10.1889210190        4.0786112941        6.4419458017
Ge           10.1874429049        6.1291056725        7.8959733463
Ge            8.1516054730        6.1110296151        9.3276462460
Ge            8.1488319835        4.0880132995       10.7627137169
Ge           10.1937452829        4.0667204495       12.2051157009
Ge           10.2134898416        6.1192364284       13.6399624322
Ge            8.1482216562        6.1366435505       15.1111548979
Ge           12.2431198565       -0.0073321069        4.9852147045
Ge           14.2702186583       -0.0094808926        6.4361679445
Ge           14.2868155303        2.0287964167        7.8722255488
Ge           12.2378508493        2.0526218210        9.3404022576
Ge           12.2252807788       -0.0012455532       10.7545365351
Ge           14.2812096882        0.0001740117       12.2083791467
Ge           14.2792546910        2.0328565764       13.6394337678
Ge           12.2387296766        2.0544755580       15.1033697200
Ge           12.2223760109        4.0888657023        4.9963113709
Ge           14.2637391277        4.0783483130        6.4360766984
Ge           14.2887146487        6.1060277659        7.8929238409
Ge           12.2269580923        6.1071509601        9.3179913118
Ge           12.2382267214        4.0778739503       10.7748752056
Ge           14.2682678997        4.0933124142       12.2109262956
Ge           14.2634017847        6.1071778040       13.6623227892
Ge           12.2302485513        6.1308285024       15.1130700600



     Writing output data file ./out/ge.save/
     NEW-OLD atomic charge density approx. for the potential

     total cpu time spent up to now is      382.6 secs

     Self-consistent Calculation

     iteration #  1     ecut=    60.00 Ry     beta= 0.40
     Davidson diagonalization with overlap
     ethr =  1.00E-06,  avg # of iterations =  4.0

     Threshold (ethr) on eigenvalues was too large:
     Diagonalizing with lowered threshold

     Davidson diagonalization with overlap
     ethr =  3.20E-08,  avg # of iterations =  4.0

     total cpu time spent up to now is      433.4 secs

     total energy              =  -11429.15564174 Ry
     estimated scf accuracy    <       0.00030684 Ry

     iteration #  2     ecut=    60.00 Ry     beta= 0.40
     Davidson diagonalization with overlap
     ethr =  3.42E-08,  avg # of iterations =  3.0

     total cpu time spent up to now is      449.1 secs

     total energy              =  -11429.15538486 Ry
     estimated scf accuracy    <       0.00624796 Ry

     iteration #  3     ecut=    60.00 Ry     beta= 0.40
     Davidson diagonalization with overlap
     ethr =  3.42E-08,  avg # of iterations =  2.0

     total cpu time spent up to now is      464.0 secs

     total energy              =  -11429.15564237 Ry
     estimated scf accuracy    <       0.00145194 Ry

     iteration #  4     ecut=    60.00 Ry     beta= 0.40
     Davidson diagonalization with overlap
     ethr =  3.42E-08,  avg # of iterations =  2.0

     total cpu time spent up to now is      478.5 secs

     total energy              =  -11429.15569895 Ry
     estimated scf accuracy    <       0.00072745 Ry

     iteration #  5     ecut=    60.00 Ry     beta= 0.40
     Davidson diagonalization with overlap
     ethr =  3.42E-08,  avg # of iterations =  2.0

     total cpu time spent up to now is      493.1 secs

     total energy              =  -11429.15573012 Ry
     estimated scf accuracy    <       0.00007775 Ry

     iteration #  6     ecut=    60.00 Ry     beta= 0.40
     Davidson diagonalization with overlap
     ethr =  8.68E-09,  avg # of iterations =  2.0

     total cpu time spent up to now is      507.7 secs

     total energy              =  -11429.15573446 Ry
     estimated scf accuracy    <       0.00009029 Ry

     iteration #  7     ecut=    60.00 Ry     beta= 0.40
     Davidson diagonalization with overlap
     ethr =  8.68E-09,  avg # of iterations =  2.0

     total cpu time spent up to now is      522.2 secs

     total energy              =  -11429.15574127 Ry
     estimated scf accuracy    <       0.00001124 Ry

     iteration #  8     ecut=    60.00 Ry     beta= 0.40
     Davidson diagonalization with overlap
     ethr =  1.25E-09,  avg # of iterations =  2.0

     total cpu time spent up to now is      536.8 secs

     total energy              =  -11429.15574215 Ry
     estimated scf accuracy    <       0.00000617 Ry

     iteration #  9     ecut=    60.00 Ry     beta= 0.40
     Davidson diagonalization with overlap
     ethr =  6.88E-10,  avg # of iterations =  2.0

     total cpu time spent up to now is      551.3 secs

     total energy              =  -11429.15574272 Ry
     estimated scf accuracy    <       0.00000193 Ry

     iteration # 10     ecut=    60.00 Ry     beta= 0.40
     Davidson diagonalization with overlap
     ethr =  2.15E-10,  avg # of iterations =  2.0

     total cpu time spent up to now is      565.8 secs

     End of self-consistent calculation

          k = 0.0000 0.0000 0.0000 (141623 PWs)   bands (ev):

   -21.8746 -21.8727 -21.8707 -21.8685 -21.8672 -21.8664 -21.8652 -21.8635
   -21.8597 -21.8575 -21.8565 -21.8558 -21.8523 -21.8504 -21.8484 -21.8388
   -21.8380 -21.8371 -21.8356 -21.8339 -21.8320 -21.8316 -21.8296 -21.8285
   -21.8271 -21.8270 -21.8249 -21.8245 -21.8182 -21.8156 -21.8151 -21.8125
   -21.8119 -21.8107 -21.8068 -21.8025 -21.7992 -21.7970 -21.7967 -21.7957
   -21.7938 -21.7913 -21.7868 -21.7858 -21.7853 -21.7847 -21.7840 -21.7829
   -21.7827 -21.7821 -21.7793 -21.7787 -21.7776 -21.7756 -21.7724 -21.7708
   -21.7700 -21.7678 -21.7660 -21.7647 -21.7642 -21.7635 -21.7609 -21.7572
   -21.7562 -21.7552 -21.7546 -21.7522 -21.7516 -21.7510 -21.7500 -21.7494
   -21.7479 -21.7447 -21.7432 -21.7416 -21.7400 -21.7391 -21.7386 -21.7380
   -21.7364 -21.7345 -21.7327 -21.7304 -21.7275 -21.7246 -21.7227 -21.7212
   -21.7179 -21.7174 -21.7159 -21.7155 -21.7064 -21.7048 -21.7045 -21.7023
   -21.7020 -21.6990 -21.6980 -21.6967 -21.6951 -21.6948 -21.6931 -21.6930
   -21.6912 -21.6899 -21.6894 -21.6885 -21.6879 -21.6870 -21.6868 -21.6848
   -21.6835 -21.6825 -21.6813 -21.6794 -21.6791 -21.6779 -21.6776 -21.6773
   -21.6765 -21.6758 -21.6754 -21.6744 -21.6715 -21.6703 -21.6674 -21.6625
   -21.6620 -21.6602 -21.6588 -21.6581 -21.6576 -21.6568 -21.6562 -21.6550
   -21.6480 -21.6462 -21.6451 -21.6431 -21.6413 -21.6396 -21.6393 -21.6386
   -21.6378 -21.6371 -21.6356 -21.6353 -21.6347 -21.6345 -21.6338 -21.6334
   -21.6332 -21.6325 -21.6322 -21.6295 -21.6282 -21.6279 -21.6268 -21.6256
   -21.6245 -21.6239 -21.6234 -21.6228 -21.6223 -21.6210 -21.6208 -21.6207
   -21.6199 -21.6197 -21.6193 -21.6185 -21.6180 -21.6173 -21.6169 -21.6168
   -21.6156 -21.6151 -21.6146 -21.6139 -21.6136 -21.6130 -21.6127 -21.6081
   -21.6064 -21.6057 -21.6051 -21.6038 -21.6036 -21.6030 -21.6012 -21.6009
   -21.6005 -21.5998 -21.5950 -21.5931 -21.5917 -21.5904 -21.5896 -21.5892
   -21.5887 -21.5881 -21.5865 -21.5858 -21.5825 -21.5790 -21.5788 -21.5734
   -21.5717 -21.5705 -21.5692 -21.5666 -21.5665 -21.5662 -21.5655 -21.5639
   -21.5637 -21.5615 -21.5612 -21.5608 -21.5605 -21.5591 -21.5498 -21.5490
   -21.5424 -21.5389 -21.5365 -21.5356 -21.5297 -21.5283 -21.5280 -21.5260
   -21.5258 -21.5246 -21.5220 -21.5209 -21.5197 -21.5196 -21.5148 -21.5126
   -21.4393 -21.4346 -21.4289 -21.4286 -21.4253 -21.4229 -21.4224 -21.4214
   -21.4193 -21.4190 -21.4179 -21.4174 -21.4163 -21.4161 -21.4145 -21.4133
   -21.4131 -21.4124 -21.4094 -21.4079 -21.4066 -21.4057 -21.4044 -21.4036
   -21.4015 -21.4008 -21.4001 -21.3979 -21.3972 -21.3957 -21.3937 -21.3914
   -21.3810 -21.3808 -21.3784 -21.3781 -21.3766 -21.3750 -21.3738 -21.3716
   -21.3706 -21.3696 -21.3691 -21.3673 -21.3667 -21.3664 -21.3660 -21.3656
   -21.3650 -21.3646 -21.3643 -21.3634 -21.3631 -21.3621 -21.3619 -21.3614
   -21.3589 -21.3585 -21.3579 -21.3567 -21.3559 -21.3542 -21.3527 -21.3502
   -21.3305 -21.3279 -21.3269 -21.3238 -21.3197 -21.3183 -21.3178 -21.3155
   -21.3131 -21.3107 -21.3098 -21.3092 -21.3084 -21.3078 -21.3012 -21.2980
    -9.0388  -8.5814  -8.5688  -8.3632  -7.9497  -7.9305  -7.4364  -7.4308
    -7.4214  -7.3837  -7.3544  -7.2615  -7.0603  -7.0502  -7.0049  -7.0042
    -6.9541  -6.9334  -6.9213  -6.9169  -6.5219  -6.5160  -6.4935  -6.4856
    -6.0986  -5.6181  -5.5995  -5.5930  -5.5787  -5.5600  -5.5540  -5.3588
    -5.3527  -5.1693  -5.1083  -4.9280  -4.9206  -4.7113  -4.7091  -4.5199
    -4.1945  -4.1764  -4.1709  -4.1558  -3.9342  -3.9100  -3.8989  -3.7614
    -3.4988  -3.4924  -3.4499  -3.3121  -3.3100  -3.2930  -3.2854  -2.7882
    -2.7793  -2.6989  -2.2411  -2.2140  -1.1091  -1.0836  -0.7734  -0.5780
    -0.5681  -0.3122  -0.3089  -0.2963  -0.2951  -0.2734  -0.2711  -0.2447
    -0.2381  -0.0288  -0.0247  -0.0202  -0.0188   0.0009   0.0428   0.0496
     0.0949   0.1841   0.1871   0.3837   0.3865   0.4333   0.4575   0.7891
     0.7925   0.8027   0.8051   0.8427   0.8457   1.0912   1.1550   1.1680
     1.2386   1.4098   1.4519   1.4679   1.6129   1.6284   1.6891   1.7030
     1.7101   1.7824   1.8139   1.8182   1.8327   1.8967   1.9012   1.9525
     2.0452   2.0456   2.0684   2.0741   2.1714   2.2201   2.2346   2.3130
     2.3170   2.3260   2.3318   2.3420   2.3648   2.3667   2.4848   2.4866
     2.4925   2.4939   2.6986   2.7168   2.7602   2.8574   2.8592   3.2571
     3.7212   3.9601   3.9977   4.1461   4.1560   4.3240   4.3493   4.4875
     4.4944   4.4966   4.5730   4.5779   4.6192   4.6237   4.6418   4.6565
     4.6635   4.6814   4.7905   4.7995   4.9335   4.9346   4.9360   4.9606
     4.9780   5.0242   5.0471   5.0596   5.0658   5.0760   5.0791   5.0939
     5.2131   5.2733   5.2845   5.3950   5.8941   5.9006   5.9098   5.9154
     6.0864   6.0971   6.2003   6.2048   6.2762   6.4137   6.4381   6.7088
     6.7335   6.7658   6.8018   6.9856   6.9895   7.0090   7.0236   7.0333
     7.0423   7.0538   7.1317   7.1435   7.1485   7.1809   7.2067   7.2110
     7.2820   7.3606   7.4298   7.4375   7.4436   7.4588   7.4625   7.4721
     7.4805   7.5623   7.5720   7.6322   7.6366   7.6569   7.7411   7.7625
     7.7682   7.8464

          k = 0.0000-1.0000 0.0000 (141742 PWs)   bands (ev):

   -21.8745 -21.8722 -21.8711 -21.8706 -21.8672 -21.8644 -21.8636 -21.8628
   -21.8608 -21.8600 -21.8580 -21.8567 -21.8541 -21.8533 -21.8506 -21.8485
   -21.8437 -21.8422 -21.8412 -21.8403 -21.8402 -21.8388 -21.8374 -21.8372
   -21.8260 -21.8248 -21.8231 -21.8224 -21.8217 -21.8184 -21.8177 -21.8151
   -21.8011 -21.7995 -21.7989 -21.7981 -21.7973 -21.7970 -21.7959 -21.7945
   -21.7932 -21.7914 -21.7908 -21.7905 -21.7903 -21.7897 -21.7862 -21.7854
   -21.7842 -21.7835 -21.7811 -21.7795 -21.7778 -21.7764 -21.7749 -21.7739
   -21.7731 -21.7725 -21.7678 -21.7650 -21.7645 -21.7631 -21.7607 -21.7603
   -21.7588 -21.7571 -21.7568 -21.7548 -21.7534 -21.7517 -21.7451 -21.7431
   -21.7396 -21.7379 -21.7375 -21.7357 -21.7345 -21.7339 -21.7326 -21.7320
   -21.7313 -21.7309 -21.7298 -21.7297 -21.7281 -21.7270 -21.7265 -21.7257
   -21.7081 -21.7068 -21.7045 -21.7036 -21.7024 -21.7010 -21.7007 -21.6982
   -21.6970 -21.6963 -21.6953 -21.6942 -21.6940 -21.6932 -21.6923 -21.6921
   -21.6915 -21.6913 -21.6905 -21.6895 -21.6892 -21.6891 -21.6881 -21.6874
   -21.6867 -21.6859 -21.6853 -21.6841 -21.6824 -21.6805 -21.6781 -21.6768
   -21.6760 -21.6751 -21.6740 -21.6717 -21.6704 -21.6700 -21.6695 -21.6691
   -21.6680 -21.6670 -21.6667 -21.6656 -21.6608 -21.6605 -21.6595 -21.6559
   -21.6479 -21.6463 -21.6452 -21.6449 -21.6431 -21.6415 -21.6413 -21.6407
   -21.6396 -21.6387 -21.6383 -21.6382 -21.6377 -21.6373 -21.6367 -21.6355
   -21.6351 -21.6347 -21.6342 -21.6334 -21.6331 -21.6319 -21.6317 -21.6293
   -21.6282 -21.6279 -21.6270 -21.6256 -21.6240 -21.6227 -21.6217 -21.6212
   -21.6205 -21.6204 -21.6196 -21.6190 -21.6181 -21.6172 -21.6163 -21.6159
   -21.6157 -21.6150 -21.6140 -21.6138 -21.6133 -21.6122 -21.6084 -21.6070
   -21.6064 -21.6051 -21.6045 -21.6038 -21.6032 -21.6029 -21.6020 -21.6015
   -21.6009 -21.5997 -21.5966 -21.5960 -21.5927 -21.5909 -21.5888 -21.5882
   -21.5878 -21.5868 -21.5866 -21.5850 -21.5839 -21.5828 -21.5754 -21.5734
   -21.5708 -21.5692 -21.5689 -21.5681 -21.5659 -21.5654 -21.5652 -21.5632
   -21.5628 -21.5606 -21.5568 -21.5567 -21.5556 -21.5550 -21.5509 -21.5503
   -21.5428 -21.5393 -21.5373 -21.5364 -21.5291 -21.5284 -21.5274 -21.5258
   -21.5256 -21.5247 -21.5218 -21.5204 -21.5193 -21.5189 -21.5146 -21.5122
   -21.4456 -21.4411 -21.4386 -21.4371 -21.4315 -21.4312 -21.4296 -21.4290
   -21.4283 -21.4279 -21.4247 -21.4242 -21.4228 -21.4198 -21.4178 -21.4177
   -21.4068 -21.4049 -21.4037 -21.4029 -21.4025 -21.4001 -21.3991 -21.3985
   -21.3972 -21.3956 -21.3937 -21.3934 -21.3912 -21.3907 -21.3904 -21.3902
   -21.3777 -21.3763 -21.3759 -21.3742 -21.3739 -21.3733 -21.3723 -21.3716
   -21.3713 -21.3709 -21.3704 -21.3694 -21.3687 -21.3680 -21.3675 -21.3657
   -21.3654 -21.3641 -21.3633 -21.3630 -21.3626 -21.3617 -21.3616 -21.3612
   -21.3595 -21.3593 -21.3588 -21.3585 -21.3573 -21.3562 -21.3559 -21.3552
   -21.3305 -21.3284 -21.3258 -21.3241 -21.3185 -21.3177 -21.3157 -21.3151
   -21.3127 -21.3121 -21.3116 -21.3106 -21.3101 -21.3072 -21.3056 -21.3055
    -8.5828  -8.5771  -8.1234  -8.1173  -8.1020  -8.0963  -7.9569  -7.9535
    -7.5348  -7.5219  -7.5105  -7.4961  -7.0990  -7.0932  -6.9484  -6.9336
    -6.8667  -6.8608  -6.7759  -6.7713  -6.7151  -6.7046  -6.6980  -6.6853
    -6.2764  -6.2584  -5.7639  -5.7590  -5.7499  -5.7174  -4.9743  -4.9619
    -4.9240  -4.9127  -4.7259  -4.7165  -4.7126  -4.7074  -4.3104  -4.2940
    -4.1541  -4.1395  -4.1140  -4.1019  -3.9306  -3.9104  -3.6536  -3.6521
    -3.6511  -3.6452  -3.1629  -3.1552  -2.6520  -2.6385  -2.6380  -2.6117
    -2.0682  -2.0664  -1.9186  -1.9135  -1.9011  -1.8815  -1.1455  -1.1410
    -0.6066  -0.6037  -0.5996  -0.5976  -0.5580  -0.5568  -0.5537  -0.5492
    -0.3402  -0.3334  -0.3210  -0.3172  -0.1783  -0.1744   0.1671   0.1778
     0.1822   0.1854   0.1872   0.1960   0.2209   0.2249   0.3906   0.3944
     0.3996   0.4075   0.4965   0.5100   0.8107   0.8191   0.8494   0.8607
     0.9197   0.9289   1.0793   1.0832   1.0901   1.1000   1.3822   1.3933
     1.4176   1.4241   1.4346   1.4412   1.9338   1.9350   1.9706   1.9726
     2.0665   2.0853   2.1131   2.1182   2.3806   2.3860   2.3941   2.4024
     2.4532   2.4561   2.4680   2.4756   2.5627   2.5853   2.6153   2.6210
     2.9135   2.9197   3.1450   3.1520   3.1545   3.1588   3.2655   3.2706
     3.4583   3.4680   3.4884   3.4941   3.4950   3.5055   3.7507   3.7557
     4.4712   4.4847   4.6630   4.6756   4.7703   4.7882   4.9455   4.9713
     5.0907   5.0970   5.1945   5.1998   5.2145   5.2168   5.2225   5.2366
     5.5673   5.5760   5.5912   5.5929   5.6325   5.6474   5.7859   5.7981
     6.0125   6.0170   6.1202   6.1296   6.1449   6.1459   6.4222   6.4289
     6.4331   6.4387   6.5790   6.6026   6.7056   6.7087   6.8183   6.8286
     6.8343   6.8355   6.8430   6.8511   6.9048   6.9106   7.0312   7.0473
     7.0625   7.0693   7.4962   7.5108   7.5269   7.5393   7.6092   7.6165
     7.6357   7.6377   7.6423   7.6464   7.6500   7.6511   7.6554   7.6613
     7.6667   7.6757   7.9408   7.9700   7.9736   7.9807   8.0635   8.0772
     8.1363   8.1517

     the Fermi energy is     2.6138 ev

!    total energy              =  -11429.15574278 Ry
     estimated scf accuracy    <       0.00000022 Ry
     smearing contrib. (-TS)   =      -0.02482344 Ry
     internal energy E=F+TS    =  -11429.13091934 Ry

     The total energy is F=E-TS. E is the sum of the following terms:
     one-electron contribution =  -30696.15078108 Ry
     hartree contribution      =   15749.06129909 Ry
     xc contribution           =   -2788.12859538 Ry
     ewald contribution        =    6306.08715803 Ry

     convergence has been achieved in  10 iterations

     Forces acting on atoms (cartesian axes, Ry/au):

     atom    1 type  1   force =    -0.00223765   -0.00036408   -0.01020824
     atom    2 type  1   force =     0.00635199   -0.00114383    0.00710965
     atom    3 type  1   force =     0.00443747    0.00125126    0.00125707
     atom    4 type  1   force =    -0.00449238   -0.00440498    0.00611732
     atom    5 type  1   force =    -0.00252196    0.00347673   -0.00448571
     atom    6 type  1   force =    -0.00388666    0.00169078    0.00238002
     atom    7 type  1   force =     0.00583359   -0.00030216   -0.00589221
     atom    8 type  1   force =     0.00032758    0.00003991    0.00948906
     atom    9 type  1   force =     0.00231403    0.00055721   -0.00762959
     atom   10 type  1   force =     0.00381460    0.00167744    0.00215329
     atom   11 type  1   force =    -0.00243508   -0.00115265    0.00098299
     atom   12 type  1   force =     0.00287594   -0.00163764    0.00498696
     atom   13 type  1   force =    -0.00371296    0.00171785   -0.00368605
     atom   14 type  1   force =     0.00472630   -0.00067163   -0.00264664
     atom   15 type  1   force =    -0.00119911   -0.00092205   -0.01149819
     atom   16 type  1   force =    -0.00508263    0.00006224    0.00790899
     atom   17 type  1   force =    -0.00146768   -0.00011707   -0.00421574
     atom   18 type  1   force =    -0.00175284   -0.00252840    0.00317133
     atom   19 type  1   force =    -0.00773870    0.00135023    0.00190274
     atom   20 type  1   force =     0.00281181   -0.00171302   -0.00050571
     atom   21 type  1   force =     0.00696112   -0.00031237   -0.00244371
     atom   22 type  1   force =    -0.00605160   -0.00222302   -0.00141989
     atom   23 type  1   force =    -0.00480937    0.00171189   -0.00660249
     atom   24 type  1   force =    -0.00337616    0.00018738    0.00385606
     atom   25 type  1   force =    -0.00333791    0.00027634   -0.00338908
     atom   26 type  1   force =    -0.00321567   -0.00078267    0.00403754
     atom   27 type  1   force =    -0.00433313    0.00247865   -0.00068616
     atom   28 type  1   force =     0.00103572   -0.00439249    0.00455743
     atom   29 type  1   force =    -0.00330024    0.00539444   -0.00136585
     atom   30 type  1   force =    -0.00381400   -0.00283055   -0.00358921
     atom   31 type  1   force =    -0.00021515    0.00379416   -0.01009064
     atom   32 type  1   force =     0.00121675   -0.00042837    0.01185681
     atom   33 type  1   force =    -0.00194850    0.00008016   -0.00682181
     atom   34 type  1   force =     0.00026935    0.00390737    0.00993812
     atom   35 type  1   force =     0.00028839   -0.00108007   -0.00425191
     atom   36 type  1   force =     0.00347551    0.00293902    0.00908794
     atom   37 type  1   force =     0.00466701   -0.00626861   -0.00662154
     atom   38 type  1   force =    -0.00264995   -0.00356570   -0.00310485
     atom   39 type  1   force =     0.00108604    0.00128250   -0.00090028
     atom   40 type  1   force =     0.00533481   -0.00061518    0.00857167
     atom   41 type  1   force =     0.00126273    0.00017185   -0.00814375
     atom   42 type  1   force =    -0.00012653    0.00062267    0.01095003
     atom   43 type  1   force =     0.00017343   -0.00410109   -0.00393301
     atom   44 type  1   force =     0.00256495    0.00766779    0.00861788
     atom   45 type  1   force =     0.00298306   -0.00506018   -0.00370395
     atom   46 type  1   force =    -0.00104591    0.00371295   -0.00030825
     atom   47 type  1   force =    -0.00589090   -0.00144610   -0.00359219
     atom   48 type  1   force =     0.00796850    0.00107102    0.00483932
     atom   49 type  1   force =    -0.00095373   -0.00033903   -0.00854006
     atom   50 type  1   force =     0.00086556   -0.00256763    0.01004888
     atom   51 type  1   force =    -0.00197590    0.00236657    0.00408329
     atom   52 type  1   force =     0.00357503   -0.00373764   -0.00040696
     atom   53 type  1   force =     0.00467437   -0.00152576   -0.00281896
     atom   54 type  1   force =    -0.00140932   -0.00484322   -0.00253300
     atom   55 type  1   force =    -0.00327766    0.00338378   -0.00666065
     atom   56 type  1   force =    -0.00105995    0.00057416    0.00479346
     atom   57 type  1   force =     0.00059771    0.00065274   -0.00850305
     atom   58 type  1   force =    -0.00028356   -0.00165752    0.00901886
     atom   59 type  1   force =    -0.00354336    0.00272936   -0.00151859
     atom   60 type  1   force =     0.00377539    0.00231682    0.00643627
     atom   61 type  1   force =    -0.00150181    0.00274079   -0.00531390
     atom   62 type  1   force =     0.00524782   -0.00492977   -0.00128685
     atom   63 type  1   force =     0.00290455    0.00573148   -0.00666928
     atom   64 type  1   force =     0.00022685    0.00004694    0.00783500

     Total force =     0.060464     Total SCF correction =     0.002434
     Energy error            =      5.5E-03 Ry
     Gradient error          =      1.2E-02 Ry/Bohr

     number of scf cycles    =   2
     number of bfgs steps    =   1

     energy             old  =  -11429.1502077661 Ry
     energy             new  =  -11429.1557427807 Ry

     CASE: energy            _new < energy            _old

     new trust radius        =       0.0178832749 bohr
     new conv_thr            =       0.0000001186 Ry


ATOMIC_POSITIONS (angstrom)
Ge           -0.0017887958       -0.0012987063        5.0026171272
Ge            2.0391418815       -0.0009249627        6.4390746347
Ge            2.0305646251        2.0295062521        7.8824262676
Ge            0.0050853020        2.0507200362        9.3351770299
Ge            0.0074523272       -0.0021493289       10.7605475004
Ge            2.0500363145       -0.0043452081       12.1996129742
Ge            2.0352114869        2.0271148865       13.6500621410
Ge           -0.0097464860        2.0311737859       15.0922642389
Ge           -0.0109398431        4.0922957740        4.9998040272
Ge            2.0331179298        4.0698168955        6.4561264262
Ge            2.0522697255        6.1207000703        7.8807017476
Ge            0.0072488830        6.1219984191        9.3257825238
Ge            0.0065165108        4.0874674956       10.7694989431
Ge            2.0387276770        4.0788521979       12.2272281259
Ge            2.0477241420        6.1294279395       13.6504539624
Ge            0.0101979395        6.1176225626       15.0943575341
Ge            4.0968321992        0.0113526364        4.9812070026
Ge            6.1319732238       -0.0087041174        6.4596327116
Ge            6.1281097295        2.0300996541        7.8860659388
Ge            4.0732113514        2.0467488833        9.3329983634
Ge            4.0779082414        0.0087321177       10.7598777621
Ge            6.1240959978       -0.0083899008       12.2131804800
Ge            6.1261460216        2.0271789471       13.6449758768
Ge            4.0897244637        2.0277970005       15.1196563997
Ge            4.0866621241        4.0902096181        4.9832385466
Ge            6.1153578347        4.0739150397        6.4663607239
Ge            6.1269915494        6.1110545857        7.8965099636
Ge            4.0837089597        6.1251803070        9.3385571087
Ge            4.0916391129        4.0756781888       10.7745724052
Ge            6.1335983847        4.0765213652       12.2276907108
Ge            6.1230638814        6.1110349403       13.6596912088
Ge            4.0798343989        6.1087938292       15.0945006362
Ge            8.1715964783       -0.0050756513        4.9960471612
Ge           10.2117688088       -0.0054513149        6.4476277709
Ge           10.1994727522        2.0387622428        7.8944127251
Ge            8.1534190304        2.0418176297        9.3277390219
Ge            8.1524277460        0.0101537737       10.7651339236
Ge           10.1982962765        0.0059261468       12.2090282888
Ge           10.1899149453        2.0359708982       13.6398061573
Ge            8.1504029052        2.0351518709       15.1083501146
Ge            8.1463463228        4.0818266587        5.0042594824
Ge           10.1888169900        4.0791095449        6.4506548908
Ge           10.1875693715        6.1258448926        7.8928312567
Ge            8.1536486236        6.1171453929        9.3345016990
Ge            8.1512081897        4.0839692159       10.7597669810
Ge           10.1929076489        4.0696706732       12.2048685611
Ge           10.2087997051        6.1180850486       13.6371074338
Ge            8.1545648342        6.1374905466       15.1149956440
Ge           12.2423615339       -0.0075988736        4.9784348408
Ge           14.2709099333       -0.0115343245        6.4441517999
Ge           14.2852421208        2.0306845160        7.8754624596
Ge           12.2407006751        2.0496511778        9.3400736340
Ge           12.2289972381       -0.0024598612       10.7522953098
Ge           14.2800878742       -0.0036863776       12.2063691746
Ge           14.2766478337        2.0355612134       13.6341405379
Ge           12.2378852711        2.0549306261       15.1071697086
Ge           12.2228524801        4.0893814648        4.9895634617
Ge           14.2635105094        4.0770310101        6.4432451045
Ge           14.2858865444        6.1082019770        7.8917008797
Ge           12.2299674156        6.1089844246        9.3231061869
Ge           12.2370256403        4.0800623620       10.7706573504
Ge           14.2724482401        4.0893804932       12.2099071935
Ge           14.2657156247        6.1117399399       13.6570314613
Ge           12.2304302595        6.1308667414       15.1192943598



     Writing output data file ./out/ge.save/
     NEW-OLD atomic charge density approx. for the potential

     total cpu time spent up to now is      571.6 secs

     Self-consistent Calculation

     iteration #  1     ecut=    60.00 Ry     beta= 0.40
     Davidson diagonalization with overlap
     ethr =  1.00E-06,  avg # of iterations =  4.0

     Threshold (ethr) on eigenvalues was too large:
     Diagonalizing with lowered threshold

     Davidson diagonalization with overlap
     ethr =  3.03E-08,  avg # of iterations =  4.0

     total cpu time spent up to now is      624.3 secs

     total energy              =  -11429.16024458 Ry
     estimated scf accuracy    <       0.00029329 Ry

     iteration #  2     ecut=    60.00 Ry     beta= 0.40
     Davidson diagonalization with overlap
     ethr =  3.27E-08,  avg # of iterations =  2.0

     total cpu time spent up to now is      639.7 secs

     total energy              =  -11429.16014402 Ry
     estimated scf accuracy    <       0.00141152 Ry

     iteration #  3     ecut=    60.00 Ry     beta= 0.40
     Davidson diagonalization with overlap
     ethr =  3.27E-08,  avg # of iterations =  2.0

     total cpu time spent up to now is      654.4 secs

     total energy              =  -11429.16017931 Ry
     estimated scf accuracy    <       0.00299619 Ry

     iteration #  4     ecut=    60.00 Ry     beta= 0.40
     Davidson diagonalization with overlap
     ethr =  3.27E-08,  avg # of iterations =  2.0

     total cpu time spent up to now is      669.0 secs

     total energy              =  -11429.16027940 Ry
     estimated scf accuracy    <       0.00023865 Ry

     iteration #  5     ecut=    60.00 Ry     beta= 0.40
     Davidson diagonalization with overlap
     ethr =  2.66E-08,  avg # of iterations =  2.0

     total cpu time spent up to now is      683.6 secs

     total energy              =  -11429.16029270 Ry
     estimated scf accuracy    <       0.00016955 Ry

     iteration #  6     ecut=    60.00 Ry     beta= 0.40
     Davidson diagonalization with overlap
     ethr =  1.89E-08,  avg # of iterations =  2.0

     total cpu time spent up to now is      698.1 secs

     total energy              =  -11429.16030219 Ry
     estimated scf accuracy    <       0.00007172 Ry

     iteration #  7     ecut=    60.00 Ry     beta= 0.40
     Davidson diagonalization with overlap
     ethr =  8.00E-09,  avg # of iterations =  2.0

     total cpu time spent up to now is      712.6 secs

     total energy              =  -11429.16030744 Ry
     estimated scf accuracy    <       0.00003272 Ry

     iteration #  8     ecut=    60.00 Ry     beta= 0.40
     Davidson diagonalization with overlap
     ethr =  3.65E-09,  avg # of iterations =  2.0

     total cpu time spent up to now is      727.1 secs

     total energy              =  -11429.16030984 Ry
     estimated scf accuracy    <       0.00000246 Ry

     iteration #  9     ecut=    60.00 Ry     beta= 0.40
     Davidson diagonalization with overlap
     ethr =  2.74E-10,  avg # of iterations =  3.0

     total cpu time spent up to now is      742.3 secs

     total energy              =  -11429.16030989 Ry
     estimated scf accuracy    <       0.00000492 Ry

     iteration # 10     ecut=    60.00 Ry     beta= 0.40
     Davidson diagonalization with overlap
     ethr =  2.74E-10,  avg # of iterations =  2.0

     total cpu time spent up to now is      756.9 secs

     total energy              =  -11429.16031027 Ry
     estimated scf accuracy    <       0.00000043 Ry

     iteration # 11     ecut=    60.00 Ry     beta= 0.40
     Davidson diagonalization with overlap
     ethr =  4.81E-11,  avg # of iterations =  2.0

     total cpu time spent up to now is      771.6 secs

     total energy              =  -11429.16031029 Ry
     estimated scf accuracy    <       0.00000018 Ry

     iteration # 12     ecut=    60.00 Ry     beta= 0.40
     Davidson diagonalization with overlap
     ethr =  2.03E-11,  avg # of iterations =  2.0

     total cpu time spent up to now is      786.3 secs

     total energy              =  -11429.16031028 Ry
     estimated scf accuracy    <       0.00000048 Ry

     iteration # 13     ecut=    60.00 Ry     beta= 0.40
     Davidson diagonalization with overlap
     ethr =  2.03E-11,  avg # of iterations =  2.0

     total cpu time spent up to now is      800.9 secs

     End of self-consistent calculation

          k = 0.0000 0.0000 0.0000 (141623 PWs)   bands (ev):

   -21.8757 -21.8745 -21.8722 -21.8701 -21.8695 -21.8691 -21.8673 -21.8658
   -21.8624 -21.8606 -21.8587 -21.8583 -21.8562 -21.8537 -21.8523 -21.8446
   -21.8420 -21.8408 -21.8399 -21.8368 -21.8362 -21.8351 -21.8341 -21.8327
   -21.8322 -21.8316 -21.8304 -21.8299 -21.8208 -21.8196 -21.8192 -21.8157
   -21.8152 -21.8148 -21.8080 -21.8034 -21.8010 -21.7999 -21.7985 -21.7969
   -21.7942 -21.7919 -21.7878 -21.7873 -21.7870 -21.7867 -21.7859 -21.7850
   -21.7842 -21.7834 -21.7814 -21.7810 -21.7803 -21.7792 -21.7735 -21.7733
   -21.7711 -21.7695 -21.7687 -21.7683 -21.7664 -21.7648 -21.7626 -21.7593
   -21.7585 -21.7576 -21.7574 -21.7549 -21.7544 -21.7540 -21.7535 -21.7529
   -21.7489 -21.7456 -21.7453 -21.7440 -21.7435 -21.7417 -21.7408 -21.7397
   -21.7391 -21.7382 -21.7347 -21.7322 -21.7298 -21.7274 -21.7264 -21.7233
   -21.7209 -21.7204 -21.7197 -21.7195 -21.7080 -21.7073 -21.7070 -21.7068
   -21.7017 -21.6998 -21.6981 -21.6969 -21.6957 -21.6943 -21.6938 -21.6925
   -21.6923 -21.6922 -21.6910 -21.6905 -21.6904 -21.6892 -21.6864 -21.6853
   -21.6837 -21.6826 -21.6826 -21.6816 -21.6810 -21.6808 -21.6802 -21.6799
   -21.6788 -21.6782 -21.6764 -21.6763 -21.6717 -21.6710 -21.6706 -21.6663
   -21.6661 -21.6652 -21.6623 -21.6621 -21.6617 -21.6612 -21.6600 -21.6595
   -21.6465 -21.6440 -21.6436 -21.6430 -21.6425 -21.6419 -21.6403 -21.6394
   -21.6384 -21.6381 -21.6378 -21.6371 -21.6370 -21.6362 -21.6357 -21.6347
   -21.6343 -21.6339 -21.6303 -21.6297 -21.6270 -21.6267 -21.6264 -21.6261
   -21.6255 -21.6252 -21.6247 -21.6240 -21.6236 -21.6233 -21.6226 -21.6222
   -21.6217 -21.6214 -21.6211 -21.6207 -21.6204 -21.6194 -21.6192 -21.6187
   -21.6181 -21.6180 -21.6174 -21.6161 -21.6145 -21.6143 -21.6137 -21.6099
   -21.6084 -21.6081 -21.6070 -21.6068 -21.6045 -21.6041 -21.6037 -21.5990
   -21.5973 -21.5960 -21.5926 -21.5922 -21.5908 -21.5889 -21.5878 -21.5875
   -21.5865 -21.5856 -21.5841 -21.5831 -21.5825 -21.5820 -21.5819 -21.5763
   -21.5751 -21.5739 -21.5699 -21.5684 -21.5682 -21.5657 -21.5654 -21.5651
   -21.5645 -21.5641 -21.5638 -21.5631 -21.5619 -21.5608 -21.5535 -21.5530
   -21.5378 -21.5361 -21.5346 -21.5334 -21.5264 -21.5256 -21.5245 -21.5242
   -21.5240 -21.5209 -21.5196 -21.5196 -21.5185 -21.5182 -21.5135 -21.5118
   -21.4318 -21.4282 -21.4236 -21.4232 -21.4193 -21.4176 -21.4163 -21.4155
   -21.4143 -21.4131 -21.4127 -21.4122 -21.4115 -21.4111 -21.4096 -21.4092
   -21.4081 -21.4073 -21.4071 -21.4044 -21.4013 -21.4003 -21.4001 -21.3996
   -21.3968 -21.3958 -21.3953 -21.3948 -21.3939 -21.3925 -21.3897 -21.3873
   -21.3758 -21.3755 -21.3735 -21.3726 -21.3721 -21.3692 -21.3676 -21.3658
   -21.3645 -21.3643 -21.3633 -21.3630 -21.3628 -21.3627 -21.3623 -21.3620
   -21.3608 -21.3602 -21.3602 -21.3600 -21.3594 -21.3587 -21.3579 -21.3570
   -21.3564 -21.3563 -21.3556 -21.3544 -21.3522 -21.3504 -21.3474 -21.3461
   -21.3263 -21.3246 -21.3242 -21.3217 -21.3173 -21.3157 -21.3147 -21.3125
   -21.3121 -21.3094 -21.3085 -21.3070 -21.3068 -21.3062 -21.2984 -21.2970
    -9.0432  -8.5854  -8.5753  -8.3551  -7.9406  -7.9277  -7.4476  -7.4310
    -7.4252  -7.3731  -7.3577  -7.2625  -7.0533  -7.0437  -6.9837  -6.9833
    -6.9490  -6.9356  -6.9276  -6.9248  -6.4958  -6.4924  -6.4765  -6.4715
    -6.0832  -5.5988  -5.5948  -5.5915  -5.5806  -5.5670  -5.5635  -5.3471
    -5.3439  -5.1516  -5.0909  -4.9261  -4.9218  -4.6922  -4.6912  -4.5287
    -4.1962  -4.1884  -4.1841  -4.1765  -3.9285  -3.9189  -3.9115  -3.7525
    -3.4922  -3.4883  -3.4303  -3.3138  -3.3137  -3.3011  -3.2954  -2.8036
    -2.7992  -2.7084  -2.2318  -2.2128  -1.0970  -1.0786  -0.7827  -0.5682
    -0.5632  -0.3006  -0.2985  -0.2913  -0.2911  -0.2734  -0.2720  -0.2479
    -0.2435  -0.0196  -0.0162  -0.0134  -0.0133  -0.0019   0.0462   0.0494
     0.0985   0.1894   0.1907   0.3971   0.4002   0.4349   0.4450   0.8012
     0.8033   0.8105   0.8117   0.8277   0.8332   1.1092   1.1519   1.1659
     1.2438   1.4048   1.4498   1.4609   1.6253   1.6324   1.6761   1.6997
     1.7082   1.7735   1.8127   1.8155   1.8227   1.8941   1.8968   1.9790
     2.0649   2.0700   2.0791   2.0799   2.1628   2.2102   2.2183   2.3052
     2.3104   2.3192   2.3243   2.3428   2.3700   2.3718   2.4823   2.4853
     2.4898   2.4916   2.6985   2.7151   2.7813   2.8451   2.8466   3.2509
     3.7127   3.9565   4.0016   4.1376   4.1499   4.3192   4.3385   4.4758
     4.4794   4.5059   4.5733   4.5760   4.6202   4.6226   4.6360   4.6492
     4.6671   4.6727   4.7989   4.8049   4.9362   4.9377   4.9399   4.9695
     4.9863   5.0200   5.0598   5.0708   5.0745   5.0823   5.0930   5.0975
     5.2137   5.2761   5.2827   5.3967   5.8883   5.8971   5.8984   5.9053
     6.0790   6.0843   6.1996   6.2045   6.2622   6.4010   6.4167   6.7011
     6.7193   6.7492   6.7845   6.9612   7.0014   7.0134   7.0166   7.0228
     7.0305   7.0365   7.1243   7.1334   7.1559   7.1809   7.2249   7.2264
     7.2943   7.3598   7.4129   7.4359   7.4400   7.4524   7.4564   7.4630
     7.4700   7.5587   7.5642   7.6114   7.6140   7.6755   7.7237   7.7611
     7.7641   7.8452

          k = 0.0000-1.0000 0.0000 (141742 PWs)   bands (ev):

   -21.8755 -21.8737 -21.8731 -21.8724 -21.8689 -21.8663 -21.8660 -21.8647
   -21.8631 -21.8624 -21.8613 -21.8596 -21.8585 -21.8573 -21.8551 -21.8536
   -21.8491 -21.8470 -21.8455 -21.8453 -21.8444 -21.8439 -21.8421 -21.8405
   -21.8288 -21.8274 -21.8265 -21.8257 -21.8253 -21.8231 -21.8220 -21.8199
   -21.8017 -21.8015 -21.8009 -21.8004 -21.8001 -21.7993 -21.7966 -21.7951
   -21.7941 -21.7931 -21.7926 -21.7920 -21.7918 -21.7906 -21.7885 -21.7868
   -21.7862 -21.7855 -21.7830 -21.7821 -21.7808 -21.7791 -21.7774 -21.7765
   -21.7758 -21.7753 -21.7694 -21.7673 -21.7669 -21.7661 -21.7635 -21.7619
   -21.7607 -21.7606 -21.7585 -21.7567 -21.7556 -21.7543 -21.7461 -21.7445
   -21.7411 -21.7392 -21.7390 -21.7371 -21.7363 -21.7357 -21.7350 -21.7346
   -21.7342 -21.7331 -21.7326 -21.7324 -21.7314 -21.7310 -21.7302 -21.7291
   -21.7108 -21.7098 -21.7079 -21.7071 -21.7035 -21.7026 -21.7013 -21.7009
   -21.6975 -21.6974 -21.6965 -21.6962 -21.6951 -21.6944 -21.6941 -21.6934
   -21.6929 -21.6925 -21.6922 -21.6919 -21.6905 -21.6889 -21.6881 -21.6872
   -21.6864 -21.6860 -21.6847 -21.6844 -21.6832 -21.6823 -21.6816 -21.6810
   -21.6780 -21.6769 -21.6762 -21.6745 -21.6742 -21.6737 -21.6735 -21.6733
   -21.6723 -21.6719 -21.6710 -21.6704 -21.6646 -21.6641 -21.6633 -21.6609
   -21.6489 -21.6465 -21.6463 -21.6444 -21.6437 -21.6431 -21.6430 -21.6418
   -21.6417 -21.6413 -21.6411 -21.6402 -21.6400 -21.6390 -21.6385 -21.6376
   -21.6366 -21.6360 -21.6352 -21.6342 -21.6333 -21.6330 -21.6303 -21.6298
   -21.6269 -21.6262 -21.6257 -21.6251 -21.6242 -21.6231 -21.6225 -21.6222
   -21.6217 -21.6214 -21.6208 -21.6201 -21.6196 -21.6188 -21.6186 -21.6182
   -21.6178 -21.6166 -21.6164 -21.6144 -21.6141 -21.6133 -21.6097 -21.6089
   -21.6068 -21.6063 -21.6058 -21.6051 -21.6045 -21.6030 -21.6019 -21.6015
   -21.6007 -21.5998 -21.5984 -21.5978 -21.5901 -21.5887 -21.5879 -21.5869
   -21.5861 -21.5849 -21.5846 -21.5830 -21.5821 -21.5814 -21.5784 -21.5770
   -21.5750 -21.5739 -21.5683 -21.5666 -21.5663 -21.5655 -21.5649 -21.5641
   -21.5630 -21.5621 -21.5605 -21.5597 -21.5593 -21.5583 -21.5544 -21.5539
   -21.5382 -21.5364 -21.5353 -21.5342 -21.5259 -21.5255 -21.5239 -21.5238
   -21.5235 -21.5209 -21.5196 -21.5190 -21.5180 -21.5177 -21.5133 -21.5114
   -21.4385 -21.4350 -21.4331 -21.4316 -21.4260 -21.4255 -21.4245 -21.4240
   -21.4231 -21.4227 -21.4209 -21.4207 -21.4173 -21.4152 -21.4150 -21.4144
   -21.4009 -21.3982 -21.3980 -21.3973 -21.3965 -21.3951 -21.3946 -21.3929
   -21.3924 -21.3919 -21.3900 -21.3900 -21.3870 -21.3868 -21.3860 -21.3853
   -21.3715 -21.3711 -21.3706 -21.3695 -21.3682 -21.3682 -21.3678 -21.3674
   -21.3665 -21.3658 -21.3653 -21.3646 -21.3642 -21.3633 -21.3626 -21.3621
   -21.3617 -21.3606 -21.3602 -21.3599 -21.3583 -21.3577 -21.3575 -21.3568
   -21.3563 -21.3560 -21.3549 -21.3546 -21.3537 -21.3534 -21.3534 -21.3506
   -21.3263 -21.3253 -21.3232 -21.3219 -21.3149 -21.3143 -21.3135 -21.3120
   -21.3113 -21.3106 -21.3101 -21.3096 -21.3080 -21.3054 -21.3050 -21.3043
    -8.5849  -8.5816  -8.1238  -8.1196  -8.1077  -8.1044  -7.9480  -7.9443
    -7.5215  -7.5131  -7.5048  -7.4950  -7.0845  -7.0784  -6.9577  -6.9481
    -6.8674  -6.8654  -6.7745  -6.7726  -6.7017  -6.6959  -6.6901  -6.6797
    -6.2596  -6.2467  -5.7433  -5.7416  -5.7347  -5.7132  -4.9546  -4.9453
    -4.9051  -4.8961  -4.7234  -4.7193  -4.7162  -4.7139  -4.3167  -4.3070
    -4.1359  -4.1245  -4.1096  -4.1024  -3.9141  -3.8987  -3.6553  -3.6547
    -3.6541  -3.6499  -3.1769  -3.1706  -2.6469  -2.6386  -2.6376  -2.6194
    -2.0814  -2.0798  -1.9139  -1.9113  -1.9026  -1.8898  -1.1527  -1.1497
    -0.6088  -0.6069  -0.6028  -0.6021  -0.5593  -0.5578  -0.5547  -0.5537
    -0.3457  -0.3429  -0.3330  -0.3305  -0.1951  -0.1925   0.1672   0.1813
     0.1918   0.1964   0.1993   0.2055   0.2169   0.2208   0.3957   0.3986
     0.4020   0.4076   0.4994   0.5117   0.8159   0.8229   0.8531   0.8583
     0.9255   0.9332   1.0891   1.0912   1.0978   1.1043   1.4023   1.4103
     1.4264   1.4312   1.4385   1.4441   1.9328   1.9343   1.9659   1.9683
     2.0967   2.1062   2.1111   2.1154   2.3719   2.3778   2.3874   2.3942
     2.4465   2.4493   2.4600   2.4668   2.5859   2.6021   2.6207   2.6229
     2.9019   2.9078   3.1483   3.1550   3.1591   3.1609   3.2731   3.2803
     3.4641   3.4751   3.4905   3.4956   3.4975   3.5073   3.7465   3.7517
     4.4884   4.4988   4.6652   4.6760   4.7945   4.8080   4.9541   4.9730
     5.0881   5.0934   5.1967   5.2013   5.2077   5.2129   5.2142   5.2294
     5.5744   5.5813   5.5944   5.5948   5.6325   5.6456   5.7861   5.7977
     6.0006   6.0047   6.1171   6.1208   6.1295   6.1352   6.4128   6.4194
     6.4222   6.4268   6.5694   6.5854   6.7201   6.7231   6.8110   6.8159
     6.8195   6.8263   6.8520   6.8640   6.9009   6.9064   7.0282   7.0392
     7.0532   7.0580   7.4794   7.4913   7.5253   7.5373   7.5855   7.5926
     7.6254   7.6299   7.6336   7.6409   7.6469   7.6479   7.6540   7.6609
     7.6651   7.6720   7.9504   7.9722   7.9771   7.9817   8.0643   8.0766
     8.1446   8.1532

     the Fermi energy is     2.6178 ev

!    total energy              =  -11429.16031028 Ry
     estimated scf accuracy    <       0.00000004 Ry
     smearing contrib. (-TS)   =      -0.02400605 Ry
     internal energy E=F+TS    =  -11429.13630423 Ry

     The total energy is F=E-TS. E is the sum of the following terms:
     one-electron contribution =  -30688.67265458 Ry
     hartree contribution      =   15745.30658068 Ry
     xc contribution           =   -2788.09602206 Ry
     ewald contribution        =    6302.32579173 Ry

     convergence has been achieved in  13 iterations

     Forces acting on atoms (cartesian axes, Ry/au):

     atom    1 type  1   force =    -0.00106406   -0.00042070   -0.00770464
     atom    2 type  1   force =     0.00399391   -0.00097462    0.00492582
     atom    3 type  1   force =     0.00259539    0.00114848    0.00173448
     atom    4 type  1   force =    -0.00278248   -0.00247485    0.00385621
     atom    5 type  1   force =    -0.00192823    0.00174625   -0.00308812
     atom    6 type  1   force =    -0.00248111    0.00137812    0.00046152
     atom    7 type  1   force =     0.00376558    0.00040855   -0.00387820
     atom    8 type  1   force =     0.00036961   -0.00002701    0.00695353
     atom    9 type  1   force =     0.00151629    0.00061596   -0.00587114
     atom   10 type  1   force =     0.00253249    0.00120951    0.00156812
     atom   11 type  1   force =    -0.00137321   -0.00095601    0.00124230
     atom   12 type  1   force =     0.00121812   -0.00063142    0.00356338
     atom   13 type  1   force =    -0.00165672    0.00051068   -0.00279083
     atom   14 type  1   force =     0.00258541   -0.00081937   -0.00282194
     atom   15 type  1   force =    -0.00094539   -0.00094815   -0.00742549
     atom   16 type  1   force =    -0.00323209    0.00005871    0.00619452
     atom   17 type  1   force =    -0.00111583   -0.00004041   -0.00354818
     atom   18 type  1   force =    -0.00124530   -0.00120414    0.00218237
     atom   19 type  1   force =    -0.00453302    0.00058184    0.00196583
     atom   20 type  1   force =     0.00180662   -0.00050876    0.00095624
     atom   21 type  1   force =     0.00375503   -0.00071835   -0.00229809
     atom   22 type  1   force =    -0.00292856   -0.00098678   -0.00169278
     atom   23 type  1   force =    -0.00294506    0.00087331   -0.00398875
     atom   24 type  1   force =    -0.00234932    0.00019767    0.00328063
     atom   25 type  1   force =    -0.00236985    0.00020209   -0.00295585
     atom   26 type  1   force =    -0.00209207   -0.00026177    0.00248086
     atom   27 type  1   force =    -0.00264216    0.00140530    0.00017225
     atom   28 type  1   force =     0.00016370   -0.00255483    0.00345936
     atom   29 type  1   force =    -0.00230009    0.00282279   -0.00196501
     atom   30 type  1   force =    -0.00269149   -0.00155176   -0.00341788
     atom   31 type  1   force =     0.00038768    0.00222046   -0.00685747
     atom   32 type  1   force =     0.00060736   -0.00043770    0.00909978
     atom   33 type  1   force =    -0.00128123   -0.00003899   -0.00533697
     atom   34 type  1   force =     0.00007779    0.00251068    0.00649104
     atom   35 type  1   force =     0.00031978   -0.00052879   -0.00177721
     atom   36 type  1   force =     0.00209911    0.00092691    0.00553934
     atom   37 type  1   force =     0.00232997   -0.00333044   -0.00393843
     atom   38 type  1   force =    -0.00118815   -0.00252735   -0.00212747
     atom   39 type  1   force =     0.00100199    0.00073903   -0.00120958
     atom   40 type  1   force =     0.00307617   -0.00071147    0.00641943
[...]
   -21.2339 -21.2326 -21.2291 -21.2280 -21.2237 -21.2140 -21.2137 -21.2134
   -21.2118 -21.2113 -21.2024 -21.2007 -21.1996 -21.1981 -21.1963 -21.1936
   -21.1907 -21.1899 -21.1888 -21.1873 -21.1857 -21.1848 -21.1821 -21.1760
   -21.1741 -21.1715 -21.1670 -21.1462 -21.1437 -21.1347 -21.1220 -21.1066
    -8.9947  -8.5385  -8.5239  -8.4973  -8.0848  -8.0671  -7.5901  -7.3814
    -7.3384  -7.2900  -7.2803  -7.2595  -7.1666  -7.1319  -6.8671  -6.8140
    -6.7380  -6.7074  -6.6782  -6.6011  -6.3171  -6.2146  -6.1656  -6.1507
    -6.1132  -6.0999  -6.0909  -5.8955  -5.8575  -5.4432  -5.4186  -5.3894
    -5.3677  -5.3185  -5.2930  -5.2310  -5.1484  -4.7001  -4.2267  -4.1062
    -4.0859  -4.0591  -3.9869  -3.9572  -3.8208  -3.7579  -3.7201  -3.7001
    -3.5951  -3.5513  -3.2768  -3.1023  -2.7790  -2.7754  -2.7512  -2.6828
    -2.5357  -2.5226  -2.1879  -2.0391  -1.5134  -1.2496  -1.2328  -0.6635
    -0.5744  -0.5215  -0.4056  -0.3491  -0.2269  -0.1894  -0.1780  -0.1569
    -0.1471  -0.1144  -0.0447  -0.0118   0.1361   0.1881   0.2226   0.3222
     0.4068   0.4169   0.4476   0.4957   0.5625   0.6193   0.6678   0.7379
     0.7911   0.8757   0.9141   0.9470   0.9879   1.0544   1.0903   1.1009
     1.2671   1.2754   1.3583   1.4132   1.4579   1.4665   1.5566   1.5820
     1.6844   1.7020   1.7617   1.7683   1.8091   1.8419   1.8553   1.8832
     1.9351   1.9500   2.0368   2.1303   2.1712   2.1970   2.3023   2.3550
     2.3760   2.4171   2.4762   2.5122   2.6766   2.7262   2.7852   2.8331
     3.0149   3.1726   3.2655   3.4357   3.4881   3.5460   3.5793   3.6695
     3.8588   3.9517   4.0607   4.0848   4.1293   4.1754   4.2138   4.2397
     4.3042   4.3279   4.3441   4.5103   4.5565   4.6008   4.7356   4.7986
     4.8706   4.9251   4.9836   5.0123   5.1476   5.1718   5.2110   5.2306
     5.2841   5.3724   5.4778   5.5450   5.6190   5.6581   5.7220   5.7924
     5.8066   5.8843   5.9057   5.9472   6.1069   6.1241   6.1982   6.2349
     6.2608   6.3123   6.4188   6.4919   6.5464   6.5891   6.6426   6.7196
     6.7677   6.7901   6.8121   6.8445   6.8722   6.8864   6.9341   6.9732
     6.9944   7.0294   7.0648   7.1024   7.1733   7.2683   7.3213   7.3700
     7.3891   7.4428   7.4557   7.4859   7.5513   7.5788   7.6054   7.6608
     7.6979   7.7250   7.8018   7.8136   7.8346   7.8529   7.9214   7.9515
     7.9685   8.0876

          k = 0.0000-1.0000 0.0000 (141742 PWs)   bands (ev):

   -22.0384 -22.0314 -22.0024 -21.9889 -21.9857 -21.9853 -21.9615 -21.9493
   -21.9483 -21.9441 -21.9177 -21.9092 -21.8710 -21.8652 -21.8634 -21.8628
   -21.8391 -21.8351 -21.8310 -21.8285 -21.8280 -21.8256 -21.8245 -21.8227
   -21.7929 -21.7907 -21.7860 -21.7843 -21.7622 -21.7607 -21.7578 -21.7527
   -21.7252 -21.7200 -21.7066 -21.6964 -21.6925 -21.6868 -21.6803 -21.6779
   -21.6760 -21.6730 -21.6723 -21.6704 -21.6682 -21.6668 -21.6660 -21.6611
   -21.6609 -21.6566 -21.6553 -21.6516 -21.6503 -21.6502 -21.6473 -21.6438
   -21.6380 -21.6368 -21.6319 -21.6307 -21.6296 -21.6272 -21.6253 -21.6241
   -21.6228 -21.6214 -21.6206 -21.6191 -21.6145 -21.6126 -21.6097 -21.6077
   -21.6068 -21.6031 -21.6014 -21.6007 -21.5957 -21.5895 -21.5893 -21.5891
   -21.5877 -21.5860 -21.5837 -21.5827 -21.5771 -21.5736 -21.5722 -21.5696
   -21.5667 -21.5644 -21.5640 -21.5621 -21.5614 -21.5607 -21.5596 -21.5573
   -21.5547 -21.5525 -21.5518 -21.5502 -21.5478 -21.5457 -21.5443 -21.5437
   -21.5409 -21.5398 -21.5389 -21.5364 -21.5339 -21.5328 -21.5303 -21.5292
   -21.5281 -21.5262 -21.5244 -21.5225 -21.5217 -21.5207 -21.5189 -21.5170
   -21.5154 -21.5141 -21.5130 -21.5116 -21.5107 -21.5082 -21.5073 -21.5058
   -21.5033 -21.5022 -21.5005 -21.4978 -21.4970 -21.4961 -21.4922 -21.4914
   -21.4909 -21.4896 -21.4886 -21.4875 -21.4856 -21.4846 -21.4832 -21.4826
   -21.4810 -21.4807 -21.4798 -21.4786 -21.4778 -21.4756 -21.4725 -21.4724
   -21.4710 -21.4697 -21.4681 -21.4674 -21.4666 -21.4652 -21.4646 -21.4629
   -21.4615 -21.4602 -21.4583 -21.4563 -21.4546 -21.4528 -21.4505 -21.4493
   -21.4475 -21.4469 -21.4456 -21.4453 -21.4441 -21.4427 -21.4412 -21.4408
   -21.4403 -21.4372 -21.4355 -21.4332 -21.4330 -21.4319 -21.4310 -21.4288
   -21.4272 -21.4261 -21.4259 -21.4232 -21.4225 -21.4213 -21.4183 -21.4156
   -21.4146 -21.4134 -21.4118 -21.4101 -21.4090 -21.4085 -21.4058 -21.4054
   -21.4025 -21.4023 -21.4010 -21.4002 -21.3993 -21.3957 -21.3947 -21.3935
   -21.3919 -21.3909 -21.3892 -21.3884 -21.3877 -21.3850 -21.3823 -21.3813
   -21.3795 -21.3791 -21.3782 -21.3765 -21.3739 -21.3730 -21.3721 -21.3708
   -21.3687 -21.3677 -21.3667 -21.3653 -21.3642 -21.3627 -21.3609 -21.3597
   -21.3590 -21.3576 -21.3551 -21.3528 -21.3514 -21.3513 -21.3488 -21.3484
   -21.3468 -21.3428 -21.3421 -21.3412 -21.3402 -21.3397 -21.3383 -21.3369
   -21.3356 -21.3337 -21.3321 -21.3309 -21.3285 -21.3265 -21.3254 -21.3237
   -21.3224 -21.3185 -21.3168 -21.3153 -21.3145 -21.3138 -21.3113 -21.3104
   -21.3088 -21.3067 -21.3063 -21.3039 -21.3020 -21.3011 -21.3000 -21.2972
   -21.2959 -21.2924 -21.2894 -21.2876 -21.2790 -21.2744 -21.2736 -21.2667
   -21.2518 -21.2471 -21.2457 -21.2423 -21.2415 -21.2404 -21.2398 -21.2391
   -21.2357 -21.2347 -21.2304 -21.2287 -21.2244 -21.2147 -21.2142 -21.2138
   -21.2116 -21.2110 -21.2019 -21.2009 -21.2003 -21.1990 -21.1969 -21.1934
   -21.1912 -21.1903 -21.1895 -21.1881 -21.1858 -21.1845 -21.1836 -21.1767
   -21.1751 -21.1717 -21.1681 -21.1462 -21.1433 -21.1353 -21.1217 -21.1075
    -8.6226  -8.4716  -8.1933  -8.1647  -8.0910  -8.0191  -8.0059  -7.9229
    -7.7139  -7.6524  -7.4544  -7.3972  -7.2243  -7.0447  -6.8514  -6.8188
    -6.7693  -6.7510  -6.7159  -6.7087  -6.6286  -6.6186  -6.5417  -6.4672
    -6.1445  -6.0772  -5.8799  -5.7011  -5.6607  -5.4486  -5.3923  -5.1842
    -5.1808  -4.9714  -4.7864  -4.6295  -4.4579  -4.3990  -4.0900  -4.0309
    -3.9905  -3.9822  -3.9671  -3.9328  -3.8854  -3.7785  -3.7192  -3.6934
    -3.5136  -3.4801  -3.1151  -2.9738  -2.8608  -2.7733  -2.5119  -2.4009
    -2.1519  -1.9349  -1.8653  -1.7298  -1.5740  -1.5158  -1.1727  -0.9579
    -0.7345  -0.6905  -0.5751  -0.5620  -0.5135  -0.4474  -0.4134  -0.3652
    -0.3586  -0.3189  -0.2511  -0.1888  -0.1182  -0.0493  -0.0320   0.0072
     0.0781   0.1652   0.2063   0.2303   0.3505   0.4007   0.5003   0.5556
     0.6278   0.6731   0.7700   0.9140   0.9647   0.9932   1.0162   1.0534
     1.0620   1.1612   1.1683   1.2179   1.2446   1.2635   1.3126   1.3368
     1.4030   1.4251   1.4287   1.4806   1.5677   1.6126   1.6587   1.6851
     1.7923   1.8753   1.9057   1.9589   2.0313   2.0723   2.1770   2.2549
     2.2920   2.3548   2.4017   2.4496   2.5670   2.6382   2.7674   2.8089
     3.2742   3.3668   3.4093   3.5042   3.6153   3.6795   3.7530   3.8065
     3.8946   4.0132   4.3178   4.3694   4.4773   4.5790   4.7214   4.7519
     4.7621   4.8398   4.9224   4.9623   4.9911   5.0454   5.0576   5.1177
     5.1433   5.1810   5.3322   5.4214   5.4432   5.4805   5.6248   5.6446
     5.7212   5.7529   5.7739   5.8025   5.8595   5.8898   5.9692   6.0540
     6.1344   6.1733   6.2020   6.2729   6.3208   6.3507   6.3655   6.4149
     6.5376   6.5838   6.6383   6.6873   6.7428   6.7904   6.8335   6.8955
     6.9329   6.9748   7.0198   7.0590   7.1016   7.1116   7.1167   7.1939
     7.3169   7.3716   7.4185   7.4419   7.4680   7.4770   7.5214   7.5602
     7.5955   7.6308   7.6718   7.7258   7.7627   7.7932   7.8045   7.8519
     7.8652   7.8718   7.8919   7.9273   7.9321   7.9855   8.0229   8.0481
     8.0533   8.0962

     the Fermi energy is     2.9508 ev

!    total energy              =  -11429.76629691 Ry
     estimated scf accuracy    <          7.3E-09 Ry
     smearing contrib. (-TS)   =      -0.00611454 Ry
     internal energy E=F+TS    =  -11429.76018238 Ry

     The total energy is F=E-TS. E is the sum of the following terms:
     one-electron contribution =  -32481.02268500 Ry
     hartree contribution      =   16645.63903074 Ry
     xc contribution           =   -2789.19872578 Ry
     ewald contribution        =    7194.82219767 Ry

     convergence has been achieved in  10 iterations

     Forces acting on atoms (cartesian axes, Ry/au):

     atom    1 type  1   force =     0.00030198   -0.00008957   -0.00091593
     atom    2 type  1   force =     0.00054325    0.00011493   -0.00001369
     atom    3 type  1   force =     0.00005172   -0.00033105   -0.00013222
     atom    4 type  1   force =     0.00060878    0.00045437   -0.00006734
     atom    5 type  1   force =     0.00007367   -0.00001464   -0.00015817
     atom    6 type  1   force =    -0.00028277   -0.00010267   -0.00005937
     atom    7 type  1   force =    -0.00011522    0.00022274    0.00011024
     atom    8 type  1   force =    -0.00016961   -0.00016148   -0.00055685
     atom    9 type  1   force =     0.00063708   -0.00040371    0.00032588
     atom   10 type  1   force =    -0.00033950   -0.00004171   -0.00043956
     atom   11 type  1   force =    -0.00013251    0.00071615   -0.00011793
     atom   12 type  1   force =    -0.00014407   -0.00018861    0.00008905
     atom   13 type  1   force =     0.00046444    0.00017906   -0.00023557
     atom   14 type  1   force =    -0.00023058   -0.00011574   -0.00017673
     atom   15 type  1   force =    -0.00034469    0.00033011    0.00053920
     atom   16 type  1   force =    -0.00056513   -0.00032188   -0.00003628
     atom   17 type  1   force =    -0.00002216    0.00039216    0.00037199
     atom   18 type  1   force =     0.00057798   -0.00038699   -0.00028976
     atom   19 type  1   force =    -0.00002324   -0.00047286   -0.00028732
     atom   20 type  1   force =    -0.00014151   -0.00007189   -0.00022148
     atom   21 type  1   force =    -0.00052839   -0.00003938    0.00032773
     atom   22 type  1   force =     0.00015012   -0.00027661   -0.00002262
     atom   23 type  1   force =    -0.00020739   -0.00000114    0.00052574
     atom   24 type  1   force =     0.00036782   -0.00037606    0.00073444
     atom   25 type  1   force =     0.00003291   -0.00011846    0.00014987
     atom   26 type  1   force =     0.00009471    0.00004668   -0.00019926
     atom   27 type  1   force =    -0.00069440    0.00068871   -0.00014371
     atom   28 type  1   force =     0.00030814    0.00002450   -0.00024265
     atom   29 type  1   force =    -0.00026685    0.00036151   -0.00024780
     atom   30 type  1   force =     0.00029404    0.00005432   -0.00039363
     atom   31 type  1   force =    -0.00002185    0.00023750    0.00034269
     atom   32 type  1   force =     0.00001656    0.00083905    0.00033139
     atom   33 type  1   force =    -0.00006012    0.00020013    0.00005387
     atom   34 type  1   force =     0.00026062   -0.00071050    0.00013397
     atom   35 type  1   force =     0.00028150   -0.00017876    0.00006753
     atom   36 type  1   force =    -0.00016380    0.00068153    0.00029233
     atom   37 type  1   force =    -0.00041386    0.00019082    0.00017999
     atom   38 type  1   force =    -0.00011581    0.00016105    0.00021097
     atom   39 type  1   force =     0.00023295   -0.00011537   -0.00048651
     atom   40 type  1   force =    -0.00033702   -0.00047929    0.00016376
     atom   41 type  1   force =     0.00020858    0.00003104    0.00030683
     atom   42 type  1   force =     0.00026096    0.00049495   -0.00009051
     atom   43 type  1   force =     0.00015441    0.00020242   -0.00058800
     atom   44 type  1   force =    -0.00011789   -0.00033459    0.00016795
     atom   45 type  1   force =     0.00039991   -0.00016096    0.00008553
     atom   46 type  1   force =    -0.00019708   -0.00006735   -0.00011973
     atom   47 type  1   force =    -0.00073468   -0.00025122    0.00061408
     atom   48 type  1   force =     0.00026713   -0.00022342    0.00032698
     atom   49 type  1   force =     0.00060776    0.00096266    0.00004558
     atom   50 type  1   force =    -0.00003971    0.00003835    0.00000565
     atom   51 type  1   force =    -0.00015916   -0.00049728    0.00037092
     atom   52 type  1   force =    -0.00006379    0.00057106    0.00047363
     atom   53 type  1   force =    -0.00015321    0.00023278    0.00003757
     atom   54 type  1   force =     0.00006108   -0.00019737    0.00030587
     atom   55 type  1   force =    -0.00067146   -0.00046162   -0.00032624
     atom   56 type  1   force =    -0.00026234   -0.00013515   -0.00021890
     atom   57 type  1   force =     0.00001374   -0.00061980   -0.00009043
     atom   58 type  1   force =     0.00055146    0.00017536   -0.00013521
     atom   59 type  1   force =    -0.00002746   -0.00007070    0.00031890
     atom   60 type  1   force =    -0.00017453   -0.00042191   -0.00032965
     atom   61 type  1   force =     0.00006825   -0.00096659   -0.00051880
     atom   62 type  1   force =     0.00047698    0.00049172   -0.00026909
     atom   63 type  1   force =    -0.00017221    0.00012904    0.00021277
     atom   64 type  1   force =    -0.00027451    0.00018167   -0.00009195

     Total force =     0.004729     Total SCF correction =     0.000517
     SCF correction compared to forces is large: reduce conv_thr to get better values
     Energy error            =      5.1E-05 Ry
     Gradient error          =      9.7E-04 Ry/Bohr

     bfgs converged in  23 scf cycles and  22 bfgs steps
     (criteria: energy <  1.0E-04 Ry, force <  1.0E-03 Ry/Bohr)

     End of BFGS Geometry Optimization

     Final energy             =  -11429.7662969139 Ry

     File ./out/ge.bfgs deleted, as requested
Begin final coordinates

ATOMIC_POSITIONS (angstrom)
Ge            0.1635537839       -1.0630455231        5.7055201332
Ge            2.2686590817        0.0715096033        6.3817562361
Ge            1.9520623111        2.0420271126        7.8862408929
Ge           -0.0565026991        2.0623186446        9.3285333006
Ge            0.0309678556        0.0597967788       10.8469006024
Ge            2.1656955046        0.0658148227       12.1927632018
Ge            2.0391807887        2.0829842638       13.6937331977
Ge           -0.0884233705        1.0467825172       14.4835795499
Ge            0.0166548774        4.7037648923        4.8488877340
Ge            1.9308741321        4.1152714078        6.4260930594
Ge            2.1026728309        6.1517745120        7.8862119067
Ge           -0.0083708996        6.2326441948        9.3094872855
Ge           -0.0091925549        4.1508634062       10.6523747904
Ge            1.9406172816        4.0848715724       12.1955235053
Ge            1.8834999472        6.2002913977       13.6393599175
Ge           -0.0418007467        6.7344136772       15.2828713077
Ge            4.2037382321        0.6703899143        4.8349273803
Ge            6.1517385884        0.0469098305        6.3735286644
Ge            6.2452261538        2.0389539542        7.8980512916
Ge            4.0956560040        2.1247345169        9.2374724851
Ge            4.1120370001        0.1174458193       10.6859176944
Ge            6.0755298600        0.0578026647       12.2068939999
Ge            5.9459422626        2.1205919737       13.7260831133
Ge            3.9812837611        2.7298771183       15.2672361086
Ge            4.0724344918        3.0886599039        5.6422867493
Ge            6.1768394410        4.1289752245        6.5046904724
Ge            5.9375257257        6.2091153202        7.8886261496
Ge            4.0348732007        6.1571615492        9.4525603042
Ge            4.0815507378        4.0836514211       10.8445079587
Ge            6.2212675098        4.0732558512       12.1880321040
Ge            6.1769975556        6.1594209222       13.6375225487
Ge            4.0079023246        5.1632304101       14.3821693176
Ge            8.1680802178       -0.5956884797        4.9071120820
Ge           10.1386521256       -0.0713251540        6.4438414138
Ge           10.2204673610        2.0589500490        7.7929762865
Ge            8.2487333724        2.0687163482        9.3465304516
Ge            8.2034313398        0.0522654762       10.8423856765
Ge           10.3360697908        0.0426131819       12.1785274861
Ge           10.2058106021        2.0810286796       13.6634821492
Ge            8.0648844481        1.0647416809       14.4487580439
Ge            8.3006145686        5.1645782814        5.6894958082
Ge           10.4251830305        4.1590835136        6.4147702308
Ge           10.1465646965        6.1297018127        8.0266251395
Ge            8.0195572587        6.2328928520        9.3135405677
Ge            8.1677106553        4.1608305683       10.6632097546
Ge           10.1130145223        4.1155983421       12.2069594527
Ge           10.0726397181        6.2098855184       13.6775943089
Ge            8.1018873525        6.7535434888       15.2595137522
Ge           12.2867458614       -1.0726011506        5.6628181793
Ge           14.3580639352       -0.0072200157        6.4532631384
Ge           14.2992907991        2.1480872861        7.7720264813
Ge           12.2651191080        2.0900103663        9.2328399255
Ge           12.2849276276        0.0542709831       10.6626325461
Ge           14.2267914344        0.0148562793       12.2105575428
Ge           14.1199201523        2.0881707830       13.7207167303
Ge           12.1468511116        2.6860992824       15.2713137989
Ge           12.3227729693        4.6752358071        4.7929016199
Ge           14.3120449185        4.2240638150        6.3217621273
Ge           14.1993641857        6.0685614196        7.9944473866
Ge           12.1969888951        6.0641227495        9.4548525198
Ge           12.2487716758        4.0321974467       10.8726853523
Ge           14.3829913158        4.0696827144       12.2069667928
Ge           14.3364255213        6.1425476618       13.6708218791
Ge           12.1804453752        5.1490140217       14.4279140340
End final coordinates



     Writing output data file ./out/ge.save/
 
     init_run     :      4.48s CPU      6.04s WALL (       1 calls)
     electrons    :   3313.40s CPU   4298.24s WALL (      23 calls)
     update_pot   :      5.11s CPU      5.53s WALL (      22 calls)
     forces       :     76.98s CPU    117.65s WALL (      23 calls)

     Called by init_run:
     wfcinit      :      3.88s CPU      5.35s WALL (       1 calls)
     potinit      :      0.10s CPU      0.12s WALL (       1 calls)
     hinit0       :      0.11s CPU      0.15s WALL (       1 calls)

     Called by electrons:
     c_bands      :   3097.82s CPU   4067.56s WALL (     260 calls)
     sum_band     :    203.62s CPU    207.50s WALL (     260 calls)
     v_of_rho     :      8.85s CPU     12.87s WALL (     260 calls)
     mix_rho      :      3.01s CPU      4.59s WALL (     260 calls)

     Called by c_bands:
     init_us_2    :     30.88s CPU     31.24s WALL (    1088 calls)
     cegterg      :   2963.21s CPU   3928.82s WALL (     520 calls)

     Called by *egterg:
     cdiaghg      :    118.15s CPU    237.50s WALL (    1784 calls)
     h_psi        :   1379.15s CPU   1428.61s WALL (    1876 calls)
     g_psi        :      7.65s CPU      7.79s WALL (    1354 calls)

     Called by h_psi:
     h_psi:calbec :    353.14s CPU    376.57s WALL (    1876 calls)
     vloc_psi     :    723.35s CPU    744.19s WALL (    1876 calls)
     add_vuspsi   :    286.52s CPU    289.25s WALL (    1876 calls)

     General routines
     calbec       :    410.54s CPU    472.36s WALL (    2060 calls)
     fft          :      6.70s CPU     11.62s WALL (    2875 calls)
     ffts         :      0.41s CPU      0.42s WALL (     260 calls)
     fftw         :    787.59s CPU    809.43s WALL ( 1554178 calls)
 
     Parallel routines
 
     PWSCF        :  56m42.66s CPU      1h13m WALL

 
   This run was terminated on:  20:52:13  29Apr2025            

=------------------------------------------------------------------------------=
   JOB DONE.
=------------------------------------------------------------------------------=
