
     Program PWSCF v.6.8 starts on 28Apr2025 at 10:44:46 

     This program is part of the open-source Quantum ESPRESSO suite
     for quantum simulation of materials; please cite
         "P. Giannozzi et al., J. Phys.:Condens. Matter 21 395502 (2009);
         "P. Giannozzi et al., J. Phys.:Condens. Matter 29 465901 (2017);
         "P. Giannozzi et al., J. Chem. Phys. 152 154105 (2020);
          URL http://www.quantum-espresso.org", 
     in publications or presentations arising from this work. More details at
     http://www.quantum-espresso.org/quote

     Parallel version (MPI & OpenMP), running on      56 processor cores
     Number of MPI processes:                56
     Threads/MPI process:                     1

     MPI processes distributed on     1 nodes
     R & G space division:  proc/nbgrp/npool/nimage =      56
     186225 MiB available memory on the printing compute node when the environment starts
 
     Reading input from surface_relax.in
Warning: card &CELL ignored
Warning: card / ignored
Warning: card &FCP ignored
Warning: card / ignored
Warning: card &RISM ignored
Warning: card / ignored

     Current dimensions of program PWSCF are:
     Max number of different atomic species (ntypx) = 10
     Max number of k-points (npk) =  40000
     Max angular momentum in pseudopotentials (lmaxx) =  4

     gamma-point specific algorithms are used
     Found symmetry operation: I + (  0.0000  0.5000  0.0000)
     This is a supercell, fractional translations are disabled

     Subspace diagonalization in iterative solution of the eigenvalue problem:
     one sub-group per band group will be used
     scalapack distributed-memory algorithm (size of sub-group:  7*  7 procs)

 
     Parallelization info
     --------------------
     sticks:   dense  smooth     PW     G-vecs:    dense   smooth      PW
     Min         134     134     33                18778    18778    2342
     Max         136     136     36                18824    18824    2362
     Sum        7603    7603   1905              1053289  1053289  131715
 
     Using Slab Decomposition
 


     bravais-lattice index     =            0
     lattice parameter (alat)  =      30.3318  a.u.
     unit-cell volume          =   16777.8746 (a.u.)^3
     number of atoms/cell      =           64
     number of atomic types    =            1
     number of electrons       =       896.00
     number of Kohn-Sham states=          538
     kinetic-energy cutoff     =      60.0000  Ry
     charge density cutoff     =     240.0000  Ry
     scf convergence threshold =      1.0E-06
     mixing beta               =       0.4000
     number of iterations used =            8  plain     mixing
     energy convergence thresh.=      1.0E-04
     force convergence thresh. =      1.0E-03
     Exchange-correlation= PBE
                           (   1   4   3   4   0   0   0)
     nstep                     =           50


     celldm(1)=  30.331827  celldm(2)=   0.000000  celldm(3)=   0.000000
     celldm(4)=   0.000000  celldm(5)=   0.000000  celldm(6)=   0.000000

     crystal axes: (cart. coord. in units of alat)
               a(1) = (   1.000000   0.000000   0.000000 )  
               a(2) = (   0.250000   0.433013   0.000000 )  
               a(3) = (   0.000000   0.000000   1.388483 )  

     reciprocal axes: (cart. coord. in units 2 pi/alat)
               b(1) = (  1.000000 -0.577351  0.000000 )  
               b(2) = (  0.000000  2.309401  0.000000 )  
               b(3) = (  0.000000  0.000000  0.720210 )  


     PseudoPot. # 1 for Ge read from file:
     ./Ge.upf
     MD5 check sum: 087fa14d6c89b52166990835c3b338da
     Pseudo is Norm-conserving + core correction, Zval = 14.0
     Generated using ONCVPSP code by D. R. Hamann
     Using radial grid of 1560 points,  6 beta functions with: 
                l(1) =   0
                l(2) =   0
                l(3) =   1
                l(4) =   1
                l(5) =   2
                l(6) =   2

     atomic species   valence    mass     pseudopotential
        Ge            14.00    72.63000     Ge( 1.00)

     No symmetry found



   Cartesian axes

     site n.     atom                  positions (alat units)
         1           Ge  tau(   1) = (   0.0625000   0.0360844   0.4646019  )
         2           Ge  tau(   2) = (   0.0625000   0.0360844   0.3115088  )
         3           Ge  tau(   3) = (   0.1875001   0.1082532   0.6687261  )
         4           Ge  tau(   4) = (   0.1875001   0.1082532   0.5156329  )
         5           Ge  tau(   5) = (   0.3125001   0.1804220   0.8728502  )
         6           Ge  tau(   6) = (   0.3125001   0.1804220   0.7197571  )
         7           Ge  tau(   7) = (   0.0625001   0.0360844   1.0769744  )
         8           Ge  tau(   8) = (   0.0625001   0.0360844   0.9238812  )
         9           Ge  tau(   9) = (   0.1875001   0.2525907   0.4646019  )
        10           Ge  tau(  10) = (   0.1875001   0.2525907   0.3115088  )
        11           Ge  tau(  11) = (   0.3125002   0.3247595   0.6687261  )
        12           Ge  tau(  12) = (   0.3125001   0.3247595   0.5156329  )
        13           Ge  tau(  13) = (   0.4375002   0.3969283   0.8728502  )
        14           Ge  tau(  14) = (   0.4375002   0.3969283   0.7197571  )
        15           Ge  tau(  15) = (   0.1875002   0.2525908   1.0769744  )
        16           Ge  tau(  16) = (   0.1875002   0.2525908   0.9238812  )
        17           Ge  tau(  17) = (   0.3125000   0.0360844   0.4646019  )
        18           Ge  tau(  18) = (   0.3125000   0.0360844   0.3115088  )
        19           Ge  tau(  19) = (   0.4375001   0.1082532   0.6687261  )
        20           Ge  tau(  20) = (   0.4375001   0.1082532   0.5156329  )
        21           Ge  tau(  21) = (   0.5625001   0.1804220   0.8728502  )
        22           Ge  tau(  22) = (   0.5625001   0.1804220   0.7197571  )
        23           Ge  tau(  23) = (   0.3125001   0.0360844   1.0769744  )
        24           Ge  tau(  24) = (   0.3125001   0.0360844   0.9238812  )
        25           Ge  tau(  25) = (   0.4375001   0.2525907   0.4646019  )
        26           Ge  tau(  26) = (   0.4375001   0.2525907   0.3115088  )
        27           Ge  tau(  27) = (   0.5625002   0.3247595   0.6687261  )
        28           Ge  tau(  28) = (   0.5625001   0.3247595   0.5156329  )
        29           Ge  tau(  29) = (   0.6875002   0.3969283   0.8728502  )
        30           Ge  tau(  30) = (   0.6875002   0.3969283   0.7197571  )
        31           Ge  tau(  31) = (   0.4375002   0.2525908   1.0769744  )
        32           Ge  tau(  32) = (   0.4375002   0.2525908   0.9238812  )
        33           Ge  tau(  33) = (   0.5625000   0.0360844   0.4646019  )
        34           Ge  tau(  34) = (   0.5625000   0.0360844   0.3115088  )
        35           Ge  tau(  35) = (   0.6875001   0.1082532   0.6687261  )
        36           Ge  tau(  36) = (   0.6875001   0.1082532   0.5156329  )
        37           Ge  tau(  37) = (   0.8125001   0.1804220   0.8728502  )
        38           Ge  tau(  38) = (   0.8125001   0.1804220   0.7197571  )
        39           Ge  tau(  39) = (   0.5625001   0.0360844   1.0769744  )
        40           Ge  tau(  40) = (   0.5625001   0.0360844   0.9238812  )
        41           Ge  tau(  41) = (   0.6875001   0.2525907   0.4646019  )
        42           Ge  tau(  42) = (   0.6875001   0.2525907   0.3115088  )
        43           Ge  tau(  43) = (   0.8125002   0.3247595   0.6687261  )
        44           Ge  tau(  44) = (   0.8125001   0.3247595   0.5156329  )
        45           Ge  tau(  45) = (   0.9375002   0.3969283   0.8728502  )
        46           Ge  tau(  46) = (   0.9375002   0.3969283   0.7197571  )
        47           Ge  tau(  47) = (   0.6875002   0.2525908   1.0769744  )
        48           Ge  tau(  48) = (   0.6875002   0.2525908   0.9238812  )
        49           Ge  tau(  49) = (   0.8125000   0.0360844   0.4646019  )
        50           Ge  tau(  50) = (   0.8125000   0.0360844   0.3115088  )
        51           Ge  tau(  51) = (   0.9375001   0.1082532   0.6687261  )
        52           Ge  tau(  52) = (   0.9375001   0.1082532   0.5156329  )
        53           Ge  tau(  53) = (   1.0625001   0.1804220   0.8728502  )
        54           Ge  tau(  54) = (   1.0625001   0.1804220   0.7197571  )
        55           Ge  tau(  55) = (   0.8125001   0.0360844   1.0769744  )
        56           Ge  tau(  56) = (   0.8125001   0.0360844   0.9238812  )
        57           Ge  tau(  57) = (   0.9375001   0.2525907   0.4646019  )
        58           Ge  tau(  58) = (   0.9375001   0.2525907   0.3115088  )
        59           Ge  tau(  59) = (   1.0625002   0.3247595   0.6687261  )
        60           Ge  tau(  60) = (   1.0625001   0.3247595   0.5156329  )
        61           Ge  tau(  61) = (   1.1875002   0.3969283   0.8728502  )
        62           Ge  tau(  62) = (   1.1875002   0.3969283   0.7197571  )
        63           Ge  tau(  63) = (   0.9375002   0.2525908   1.0769744  )
        64           Ge  tau(  64) = (   0.9375002   0.2525908   0.9238812  )

     number of k points=     1  Gaussian smearing, width (Ry)=  0.0100
                       cart. coord. in units 2pi/alat
        k(    1) = (   0.0000000   0.0000000   0.0000000), wk =   2.0000000

     Dense  grid:   526645 G-vectors     FFT dimensions: ( 150,  75, 216)

     Estimated max dynamical RAM per process >      82.39 MB

     Estimated total dynamical RAM >       4.51 GB

     Initial potential from superposition of free atoms

     starting charge  895.94733, renormalised to  896.00000

     negative rho (up, down):  3.978E-05 0.000E+00
     Starting wfcs are  576 randomized atomic wfcs

     total cpu time spent up to now is        1.5 secs

     Self-consistent Calculation

     iteration #  1     ecut=    60.00 Ry     beta= 0.40
     Davidson diagonalization with overlap
     ethr =  1.00E-02,  avg # of iterations =  5.0

     Threshold (ethr) on eigenvalues was too large:
     Diagonalizing with lowered threshold

     Davidson diagonalization with overlap
     ethr =  4.19E-04,  avg # of iterations =  5.0

     negative rho (up, down):  1.117E-05 0.000E+00

     total cpu time spent up to now is        8.9 secs

     total energy              =  -11426.90068614 Ry
     estimated scf accuracy    <       4.03811106 Ry

     iteration #  2     ecut=    60.00 Ry     beta= 0.40
     Davidson diagonalization with overlap
     ethr =  4.51E-04,  avg # of iterations =  9.0

     negative rho (up, down):  3.318E-07 0.000E+00

     total cpu time spent up to now is       13.3 secs

     total energy              =  -11420.25345354 Ry
     estimated scf accuracy    <     159.49115097 Ry

     iteration #  3     ecut=    60.00 Ry     beta= 0.40
     Davidson diagonalization with overlap
     ethr =  4.51E-04,  avg # of iterations = 14.0

     total cpu time spent up to now is       18.1 secs

     total energy              =  -11428.37375609 Ry
     estimated scf accuracy    <       1.23450274 Ry

     iteration #  4     ecut=    60.00 Ry     beta= 0.40
     Davidson diagonalization with overlap
     ethr =  1.38E-04,  avg # of iterations =  8.0

     total cpu time spent up to now is       21.3 secs

     total energy              =  -11428.31293450 Ry
     estimated scf accuracy    <       0.63334625 Ry

     iteration #  5     ecut=    60.00 Ry     beta= 0.40
     Davidson diagonalization with overlap
     ethr =  7.07E-05,  avg # of iterations = 13.0

     total cpu time spent up to now is       25.3 secs

     total energy              =  -11428.09920801 Ry
     estimated scf accuracy    <      10.02977142 Ry

     iteration #  6     ecut=    60.00 Ry     beta= 0.40
     Davidson diagonalization with overlap
     ethr =  7.07E-05,  avg # of iterations = 20.0

     total cpu time spent up to now is       29.7 secs

     total energy              =  -11428.42952384 Ry
     estimated scf accuracy    <       0.03966035 Ry

     iteration #  7     ecut=    60.00 Ry     beta= 0.40
     Davidson diagonalization with overlap
     ethr =  4.43E-06,  avg # of iterations =  9.0

     total cpu time spent up to now is       33.2 secs

     total energy              =  -11428.43010509 Ry
     estimated scf accuracy    <       0.01638573 Ry

     iteration #  8     ecut=    60.00 Ry     beta= 0.40
     Davidson diagonalization with overlap
     ethr =  1.83E-06,  avg # of iterations =  8.0

     total cpu time spent up to now is       36.4 secs

     total energy              =  -11428.43180353 Ry
     estimated scf accuracy    <       0.00602852 Ry

     iteration #  9     ecut=    60.00 Ry     beta= 0.40
     Davidson diagonalization with overlap
     ethr =  6.73E-07,  avg # of iterations =  2.0

     total cpu time spent up to now is       39.1 secs

     total energy              =  -11428.43190244 Ry
     estimated scf accuracy    <       0.00152410 Ry

     iteration # 10     ecut=    60.00 Ry     beta= 0.40
     Davidson diagonalization with overlap
     ethr =  1.70E-07,  avg # of iterations =  2.0

     total cpu time spent up to now is       41.7 secs

     total energy              =  -11428.43209005 Ry
     estimated scf accuracy    <       0.00034008 Ry

     iteration # 11     ecut=    60.00 Ry     beta= 0.40
     Davidson diagonalization with overlap
     ethr =  3.80E-08,  avg # of iterations =  2.0

     total cpu time spent up to now is       44.4 secs

     total energy              =  -11428.43211436 Ry
     estimated scf accuracy    <       0.00004387 Ry

     iteration # 12     ecut=    60.00 Ry     beta= 0.40
     Davidson diagonalization with overlap
     ethr =  4.90E-09,  avg # of iterations =  3.0

     total cpu time spent up to now is       47.2 secs

     total energy              =  -11428.43211770 Ry
     estimated scf accuracy    <       0.00003832 Ry

     iteration # 13     ecut=    60.00 Ry     beta= 0.40
     Davidson diagonalization with overlap
     ethr =  4.28E-09,  avg # of iterations =  3.0

     total cpu time spent up to now is       50.0 secs

     total energy              =  -11428.43212254 Ry
     estimated scf accuracy    <       0.00000424 Ry

     iteration # 14     ecut=    60.00 Ry     beta= 0.40
     Davidson diagonalization with overlap
     ethr =  4.73E-10,  avg # of iterations =  2.0

     total cpu time spent up to now is       52.7 secs

     total energy              =  -11428.43212329 Ry
     estimated scf accuracy    <       0.00000157 Ry

     iteration # 15     ecut=    60.00 Ry     beta= 0.40
     Davidson diagonalization with overlap
     ethr =  1.75E-10,  avg # of iterations =  2.0

     total cpu time spent up to now is       55.4 secs

     End of self-consistent calculation

          k = 0.0000 0.0000 0.0000 ( 65858 PWs)   bands (ev):

   -21.4096 -21.4096 -21.3997 -21.3996 -21.3971 -21.3971 -21.3944 -21.3921
   -21.3875 -21.3874 -21.3862 -21.3784 -21.3716 -21.3714 -21.3712 -21.3710
   -21.3651 -21.3641 -21.3641 -21.3628 -21.3628 -21.3530 -21.3527 -21.3527
   -21.3523 -21.3522 -21.3519 -21.3518 -21.3515 -21.3511 -21.3510 -21.3510
   -21.3507 -21.3498 -21.3498 -21.3477 -21.3475 -21.3474 -21.3473 -21.3319
   -21.3294 -21.3258 -21.3249 -21.3248 -21.3244 -21.3240 -21.3239 -21.3235
   -21.3234 -21.3232 -21.3231 -21.3225 -21.3224 -21.3217 -21.3210 -21.3209
   -21.3208 -21.3162 -21.3122 -21.3122 -21.3107 -21.3107 -21.3042 -21.2973
   -21.2924 -21.2924 -21.2859 -21.2859 -21.2750 -21.2750 -21.2734 -21.2734
   -21.2715 -21.2702 -21.2702 -21.2698 -21.2689 -21.2688 -21.2682 -21.2681
   -21.2676 -21.2675 -21.2674 -21.2673 -21.2671 -21.2670 -21.2650 -21.2650
   -21.2610 -21.2610 -21.2555 -21.2554 -21.2553 -21.2536 -21.2523 -21.2523
   -21.2460 -21.2430 -21.2430 -21.2413 -21.2413 -21.2409 -21.2409 -21.2408
   -21.2373 -21.2373 -21.2346 -21.2346 -21.2338 -21.2307 -21.2307 -21.2285
   -21.2285 -21.2271 -21.2271 -21.2269 -21.2268 -21.2246 -21.2245 -21.2245
   -21.2234 -21.2234 -21.2198 -21.2176 -21.2166 -21.2166 -21.2114 -21.2111
   -21.2110 -21.2096 -21.2096 -21.2038 -21.2038 -21.2023 -21.2023 -21.2022
   -21.2013 -21.1999 -21.1999 -21.1926 -21.1926 -21.1924 -21.1923 -21.1899
   -21.1898 -21.1871 -21.1870 -21.1822 -21.1816 -21.1793 -21.1790 -21.1783
   -21.1781 -21.1781 -21.1757 -21.1757 -21.1730 -21.1730 -21.1702 -21.1690
   -21.1650 -21.1650 -21.1618 -21.1618 -21.1617 -21.1617 -21.1599 -21.1598
   -21.1595 -21.1594 -21.1589 -21.1588 -21.1578 -21.1566 -21.1556 -21.1556
   -21.1543 -21.1543 -21.1542 -21.1542 -21.1538 -21.1538 -21.1536 -21.1536
   -21.1496 -21.1484 -21.1483 -21.1482 -21.1473 -21.1473 -21.1467 -21.1467
   -21.1460 -21.1442 -21.1442 -21.1418 -21.1418 -21.1360 -21.1335 -21.1334
   -21.1314 -21.1314 -21.1257 -21.1256 -21.1247 -21.1233 -21.1233 -21.1227
   -21.1227 -21.1189 -21.1189 -21.1103 -21.1102 -21.1087 -21.1053 -21.1000
   -21.0915 -21.0887 -21.0887 -21.0868 -21.0848 -21.0846 -21.0846 -21.0833
   -21.0833 -21.0808 -21.0789 -21.0722 -21.0722 -21.0708 -21.0708 -21.0696
   -21.0696 -21.0681 -21.0681 -21.0630 -21.0599 -21.0599 -21.0539 -21.0539
   -20.9605 -20.9605 -20.9597 -20.9596 -20.9527 -20.9527 -20.9521 -20.9520
   -20.9516 -20.9516 -20.9502 -20.9502 -20.9448 -20.9445 -20.9444 -20.9438
   -20.9437 -20.9437 -20.9367 -20.9357 -20.9354 -20.9354 -20.9352 -20.9352
   -20.9180 -20.9170 -20.9153 -20.9153 -20.9144 -20.9142 -20.9141 -20.9138
   -20.9135 -20.9126 -20.9081 -20.9081 -20.9078 -20.9069 -20.9069 -20.9046
   -20.8977 -20.8977 -20.8970 -20.8970 -20.8915 -20.8915 -20.8897 -20.8896
   -20.8845 -20.8836 -20.8764 -20.8764 -20.8763 -20.8763 -20.8763 -20.8756
   -20.8756 -20.8748 -20.8747 -20.8747 -20.8733 -20.8732 -20.8716 -20.8716
   -20.8670 -20.8668 -20.8653 -20.8653 -20.8644 -20.8640 -20.8635 -20.8634
   -20.8569 -20.8569 -20.8567 -20.8567 -20.8526 -20.8526 -20.8517 -20.8517
    -8.8925  -8.2924  -8.2360  -8.2360  -7.6495  -7.6495  -7.5782  -7.0474
    -7.0474  -6.9399  -6.9399  -6.8980  -6.8933  -6.8933  -6.5391  -6.5391
    -6.4963  -6.4962  -6.4959  -5.9576  -5.9576  -5.9568  -5.9030  -5.9030
    -5.1798  -5.1798  -5.1742  -5.0726  -5.0725  -4.9807  -4.7200  -4.7200
    -4.7039  -4.3643  -4.3642  -4.3370  -4.3321  -4.3321  -4.2581  -4.2580
    -3.8978  -3.8978  -3.8938  -3.5766  -3.5766  -3.0720  -3.0719  -3.0661
    -3.0214  -3.0214  -3.0166  -2.9056  -2.9056  -2.7981  -2.7981  -2.7417
    -2.7417  -2.5323  -1.6433  -1.6432  -0.8997  -0.8996  -0.6471  -0.2122
    -0.2122  -0.1225  -0.1225  -0.1096  -0.1096   0.0140   0.0140   0.1468
     0.1620   0.1620   0.3954   0.3954   0.4552   0.4704   0.4704   0.7506
     0.7506   0.7557   0.8955   0.8955   1.1956   1.1956   1.2809   1.3072
     1.3072   1.3183   1.3805   1.3805   1.8108   1.8140   1.8141   1.8710
     1.8711   1.8820   1.9295   1.9295   2.0192   2.0192   2.0831   2.1274
     2.1274   2.1835   2.1835   2.3601   2.3706   2.3797   2.3826   2.3826
     2.4462   2.4462   2.4803   2.4803   2.6614   2.6614   2.7917   2.8178
     2.8178   2.8182   2.8417   3.0303   3.0303   3.0933   3.0933   3.1151
     3.2902   3.3126   3.6101   3.6101   3.8729   3.9221   3.9221   4.0413
     4.0413   4.1487   4.1487   4.2761   4.3005   4.5602   4.5602   4.5648
     4.8873   4.9000   4.9001   5.0186   5.0186   5.0287   5.0287   5.0399
     5.2227   5.2228   5.2537   5.2538   5.2930   5.2931   5.3075   5.3809
     5.5007   5.5007   5.6394   5.6575   5.6575   5.6922   5.6922   5.7833
     5.7834   5.7846   5.8806   6.0042   6.1226   6.1712   6.1712   6.2548
     6.2548   6.2947   6.6679   6.6680   6.6734   6.6734   6.9658   7.0138
     7.0664   7.0664   7.0767   7.1690   7.1690   7.1790   7.5150   7.5160
     7.5160   7.5440   7.5495   7.5496   7.5594   7.5726   7.5726   7.5752
     7.6199   7.8677   7.8677   7.9657   7.9658   7.9864   7.9864   7.9924
     7.9924   7.9938   8.2692   8.2692   8.3000   8.3045   8.4119   8.4119
     8.4897   8.5584

     the Fermi energy is     3.2179 ev

!    total energy              =  -11428.43212301 Ry
     estimated scf accuracy    <       0.00000063 Ry
     smearing contrib. (-TS)   =      -0.01748483 Ry
     internal energy E=F+TS    =  -11428.41463818 Ry

     The total energy is F=E-TS. E is the sum of the following terms:
     one-electron contribution =  -34267.97723749 Ry
     hartree contribution      =   17550.66945854 Ry
     xc contribution           =   -2788.36398811 Ry
     ewald contribution        =    8077.25712888 Ry

     convergence has been achieved in  15 iterations

     Forces acting on atoms (cartesian axes, Ry/au):

     atom    1 type  1   force =    -0.00115557    0.00068021   -0.01469808
     atom    2 type  1   force =    -0.00035608    0.00020698   -0.01655621
     atom    3 type  1   force =    -0.00112200    0.00064036   -0.02069815
     atom    4 type  1   force =     0.00101628   -0.00059862    0.02430099
     atom    5 type  1   force =    -0.00101019    0.00059323   -0.02429955
     atom    6 type  1   force =     0.00114654   -0.00065500    0.02071315
     atom    7 type  1   force =     0.00037466   -0.00019374    0.01656193
     atom    8 type  1   force =     0.00116257   -0.00065684    0.01470306
     atom    9 type  1   force =    -0.00115559    0.00065432   -0.01468660
     atom   10 type  1   force =    -0.00035670    0.00020395   -0.01655972
     atom   11 type  1   force =    -0.00112844    0.00065973   -0.02070260
     atom   12 type  1   force =     0.00101857   -0.00057600    0.02430304
     atom   13 type  1   force =    -0.00101018    0.00057398   -0.02430210
     atom   14 type  1   force =     0.00115256   -0.00067336    0.02071483
     atom   15 type  1   force =     0.00035948   -0.00023057    0.01656180
     atom   16 type  1   force =     0.00116078   -0.00068499    0.01470096
     atom   17 type  1   force =    -0.00115464    0.00068049   -0.01469821
     atom   18 type  1   force =    -0.00034742    0.00021513   -0.01654524
     atom   19 type  1   force =    -0.00110583    0.00062221   -0.02071833
     atom   20 type  1   force =     0.00103877   -0.00061013    0.02429789
     atom   21 type  1   force =    -0.00101506    0.00059564   -0.02431836
     atom   22 type  1   force =     0.00113175   -0.00064161    0.02070530
     atom   23 type  1   force =     0.00034727   -0.00019422    0.01655733
     atom   24 type  1   force =     0.00114347   -0.00064899    0.01468184
     atom   25 type  1   force =    -0.00115502    0.00065298   -0.01470164
     atom   26 type  1   force =    -0.00035642    0.00019175   -0.01654694
     atom   27 type  1   force =    -0.00110190    0.00065193   -0.02071657
     atom   28 type  1   force =     0.00103540   -0.00058784    0.02429912
     atom   29 type  1   force =    -0.00101180    0.00057461   -0.02431057
     atom   30 type  1   force =     0.00113206   -0.00066530    0.02070737
     atom   31 type  1   force =     0.00034663   -0.00020585    0.01655507
     atom   32 type  1   force =     0.00114348   -0.00067127    0.01469953
     atom   33 type  1   force =    -0.00117293    0.00069086   -0.01473100
     atom   34 type  1   force =    -0.00036198    0.00021422   -0.01654749
     atom   35 type  1   force =    -0.00114532    0.00064663   -0.02069932
     atom   36 type  1   force =     0.00096826   -0.00058154    0.02429625
     atom   37 type  1   force =    -0.00099451    0.00059486   -0.02431138
     atom   38 type  1   force =     0.00111754   -0.00063070    0.02073827
     atom   39 type  1   force =     0.00035583   -0.00022145    0.01653854
     atom   40 type  1   force =     0.00119341   -0.00068434    0.01468671
     atom   41 type  1   force =    -0.00117925    0.00066785   -0.01472621
     atom   42 type  1   force =    -0.00036510    0.00020488   -0.01654185
     atom   43 type  1   force =    -0.00114626    0.00067699   -0.02069367
     atom   44 type  1   force =     0.00097665   -0.00054190    0.02430331
     atom   45 type  1   force =    -0.00100415    0.00055936   -0.02431489
     atom   46 type  1   force =     0.00111660   -0.00065902    0.02073611
     atom   47 type  1   force =     0.00037272   -0.00019981    0.01653811
     atom   48 type  1   force =     0.00120059   -0.00069774    0.01468642
     atom   49 type  1   force =    -0.00120711    0.00070452   -0.01470528
     atom   50 type  1   force =    -0.00037850    0.00020959   -0.01655518
     atom   51 type  1   force =    -0.00112923    0.00063928   -0.02069125
     atom   52 type  1   force =     0.00101743   -0.00059812    0.02430424
     atom   53 type  1   force =    -0.00103236    0.00060688   -0.02429431
     atom   54 type  1   force =     0.00110911   -0.00062426    0.02071828
     atom   55 type  1   force =     0.00037210   -0.00021268    0.01654057
     atom   56 type  1   force =     0.00118474   -0.00067261    0.01470252
     atom   57 type  1   force =    -0.00120185    0.00068603   -0.01470500
     atom   58 type  1   force =    -0.00036574    0.00022261   -0.01655482
     atom   59 type  1   force =    -0.00112751    0.00066316   -0.02069348
     atom   60 type  1   force =     0.00101361   -0.00057487    0.02430654
     atom   61 type  1   force =    -0.00102630    0.00058267   -0.02429600
     atom   62 type  1   force =     0.00110499   -0.00065449    0.02071342
     atom   63 type  1   force =     0.00037296   -0.00021768    0.01654070
     atom   64 type  1   force =     0.00119414   -0.00070233    0.01470681

     Total force =     0.155675     Total SCF correction =     0.005082

     BFGS Geometry Optimization
     Energy error            =      0.0E+00 Ry
     Gradient error          =      2.4E-02 Ry/Bohr

     number of scf cycles    =   1
     number of bfgs steps    =   0

     energy             new  =  -11428.4321230103 Ry

     new trust radius        =       0.0243468199 bohr
     new conv_thr            =       0.0000010000 Ry


ATOMIC_POSITIONS (angstrom)
Ge            1.0025710981        0.5795473910        7.4495061366
Ge            1.0029937596        0.5792969089        4.9912388288
Ge            3.0089536510        1.7379011209       10.7227097398
Ge            3.0100847736        1.7372454279        8.2892382323
Ge            5.0153776053        2.8962510014       13.9971826654
Ge            5.0165184893        2.8955904126       11.5637183350
Ge            1.0033824789        0.5790851461       17.2951843331
Ge            1.0037990176        0.5788400243       14.8369166350
Ge            3.0089359723        4.0546579242        7.4495122126
Ge            3.0093583205        4.0544195414        4.9912369718
Ge            5.0153151266        5.2130356057       10.7227073884
Ge            5.0164508718        5.2123816295        8.2892393177
Ge            7.0217424970        6.3713650472       13.9971813200
Ge            7.0228865625        6.3707049280       11.5637192237
Ge            3.0097393367        4.0541898872       17.2951842666
Ge            3.0101629614        4.0539493616       14.8369155257
Ge            5.0152994447        0.5795475404        7.4495060708
Ge            5.0157262016        0.5793012242        4.9912446371
Ge            7.0216900624        1.7378915192       10.7226990635
Ge            7.0228245307        1.7372393355        8.2892365913
Ge            9.0281028823        2.8962522795       13.9971727148
Ge            9.0292385230        2.8955974985       11.5637141824
Ge            5.0160958433        0.5790848907       17.2951819001
Ge            5.0165167714        0.5788441800       14.8369054090
Ge            7.0216641293        4.0546572122        7.4495042571
Ge            7.0220863252        4.0544130814        4.9912437386
Ge            9.0280570313        5.2130314810       10.7226999972
Ge            9.0291876352        5.2123753646        8.2892372434
Ge           11.0344694958        6.3713653809       13.9971768372
Ge           11.0356035748        6.3707091956       11.5637152765
Ge            7.0224603932        4.0542029682       17.2951807059
Ge            7.0228816631        4.0539566204       14.8369147650
Ge            9.0280176220        0.5795530263        7.4494887168
Ge            9.0284463519        0.5793007401        4.9912434438
Ge           11.0343970188        1.7379044419       10.7227091235
Ge           11.0355150741        1.7372544669        8.2892357229
Ge           13.0408416143        2.8962518689       13.9971764047
Ge           13.0419588558        2.8956032718       11.5637316287
Ge            9.0288282275        0.5790704807       17.2951719576
Ge            9.0292710504        0.5788254723       14.8369079840
Ge           11.0343791648        4.0546650810        7.4494912522
Ge           11.0348095892        4.0544200320        4.9912464287
Ge           13.0407614119        5.2130447373       10.7227121135
Ge           13.0418844027        5.2123996746        8.2892394619
Ge           15.0472014030        6.3713573127       13.9971745513
Ge           15.0483232489        6.3707125152       11.5637304840
Ge           11.0352020569        4.0542061666       17.2951717283
Ge           11.0356397372        4.0539426176       14.8369078282
Ge           13.0407273900        0.5795602553        7.4495023308
Ge           13.0411654655        0.5792982906        4.9912393740
Ge           15.0471333910        1.7379005503       10.7227133944
Ge           15.0482689488        1.7372456889        8.2892399558
Ge           17.0535494425        2.8962582289       13.9971854415
Ge           17.0546822525        2.8956066787       11.5637210490
Ge           13.0415646966        0.5790751230       17.2951730311
Ge           13.0419943187        0.5788316795       14.8369163481
Ge           15.0470950617        4.0546747044        7.4495024762
Ge           15.0475371057        4.0544294158        4.9912395673
Ge           17.0534991879        5.2130374192       10.7227122113
Ge           17.0546318155        5.2123822271        8.2892411720
Ge           19.0599175342        6.3713696465       13.9971845435
Ge           19.0610449629        6.3707149138       11.5637184777
Ge           15.0479300393        4.0541967120       17.2951731000
Ge           15.0483641807        4.0539401860       14.8369186215



     Writing output data file ./out/ge.save/
     NEW-OLD atomic charge density approx. for the potential

     total cpu time spent up to now is       56.5 secs

     Self-consistent Calculation

     iteration #  1     ecut=    60.00 Ry     beta= 0.40
     Davidson diagonalization with overlap
     c_bands:  1 eigenvalues not converged
     ethr =  1.00E-06,  avg # of iterations = 20.0

     total cpu time spent up to now is       65.1 secs

     total energy              =  -11428.45304804 Ry
     estimated scf accuracy    <       0.00143756 Ry

     iteration #  2     ecut=    60.00 Ry     beta= 0.40
     Davidson diagonalization with overlap
     ethr =  1.60E-07,  avg # of iterations =  9.0

     total cpu time spent up to now is       68.7 secs

     total energy              =  -11428.45146179 Ry
     estimated scf accuracy    <       0.04080442 Ry

     iteration #  3     ecut=    60.00 Ry     beta= 0.40
     Davidson diagonalization with overlap
     ethr =  1.60E-07,  avg # of iterations =  3.0

     total cpu time spent up to now is       71.5 secs

     total energy              =  -11428.45311048 Ry
     estimated scf accuracy    <       0.00683933 Ry

     iteration #  4     ecut=    60.00 Ry     beta= 0.40
     Davidson diagonalization with overlap
     ethr =  1.60E-07,  avg # of iterations =  2.0

     total cpu time spent up to now is       74.1 secs

     total energy              =  -11428.45345024 Ry
     estimated scf accuracy    <       0.00230828 Ry

     iteration #  5     ecut=    60.00 Ry     beta= 0.40
     Davidson diagonalization with overlap
     ethr =  1.60E-07,  avg # of iterations =  2.0

     total cpu time spent up to now is       76.8 secs

     total energy              =  -11428.45351973 Ry
     estimated scf accuracy    <       0.00032639 Ry

     iteration #  6     ecut=    60.00 Ry     beta= 0.40
     Davidson diagonalization with overlap
     ethr =  3.64E-08,  avg # of iterations =  2.0

     total cpu time spent up to now is       79.5 secs

     total energy              =  -11428.45355612 Ry
     estimated scf accuracy    <       0.00004907 Ry

     iteration #  7     ecut=    60.00 Ry     beta= 0.40
     Davidson diagonalization with overlap
     ethr =  5.48E-09,  avg # of iterations =  2.0

     total cpu time spent up to now is       82.2 secs

     total energy              =  -11428.45355996 Ry
     estimated scf accuracy    <       0.00003383 Ry

     iteration #  8     ecut=    60.00 Ry     beta= 0.40
     Davidson diagonalization with overlap
     ethr =  3.78E-09,  avg # of iterations =  2.0

     total cpu time spent up to now is       84.8 secs

     total energy              =  -11428.45356347 Ry
     estimated scf accuracy    <       0.00000214 Ry

     iteration #  9     ecut=    60.00 Ry     beta= 0.40
     Davidson diagonalization with overlap
     ethr =  2.39E-10,  avg # of iterations =  3.0

     total cpu time spent up to now is       87.6 secs

     total energy              =  -11428.45356375 Ry
     estimated scf accuracy    <       0.00000136 Ry

     iteration # 10     ecut=    60.00 Ry     beta= 0.40
     Davidson diagonalization with overlap
     ethr =  1.52E-10,  avg # of iterations =  2.0

     total cpu time spent up to now is       90.3 secs

     End of self-consistent calculation

          k = 0.0000 0.0000 0.0000 ( 65858 PWs)   bands (ev):

   -21.4169 -21.4169 -21.4082 -21.4082 -21.4076 -21.4075 -21.4029 -21.4014
   -21.3964 -21.3954 -21.3954 -21.3874 -21.3840 -21.3840 -21.3824 -21.3824
   -21.3781 -21.3758 -21.3758 -21.3750 -21.3750 -21.3634 -21.3633 -21.3527
   -21.3520 -21.3519 -21.3518 -21.3517 -21.3513 -21.3512 -21.3511 -21.3508
   -21.3507 -21.3504 -21.3503 -21.3472 -21.3471 -21.3471 -21.3469 -21.3458
   -21.3435 -21.3315 -21.3243 -21.3235 -21.3235 -21.3233 -21.3232 -21.3229
   -21.3229 -21.3229 -21.3222 -21.3221 -21.3219 -21.3219 -21.3218 -21.3217
   -21.3210 -21.3209 -21.3201 -21.3197 -21.3195 -21.3194 -21.3147 -21.3070
   -21.3013 -21.3013 -21.2976 -21.2976 -21.2837 -21.2837 -21.2827 -21.2826
   -21.2725 -21.2725 -21.2713 -21.2705 -21.2704 -21.2702 -21.2702 -21.2691
   -21.2690 -21.2686 -21.2685 -21.2679 -21.2678 -21.2675 -21.2665 -21.2664
   -21.2655 -21.2654 -21.2605 -21.2589 -21.2578 -21.2578 -21.2558 -21.2558
   -21.2531 -21.2509 -21.2509 -21.2428 -21.2428 -21.2427 -21.2427 -21.2390
   -21.2372 -21.2372 -21.2344 -21.2329 -21.2329 -21.2326 -21.2326 -21.2265
   -21.2264 -21.2263 -21.2263 -21.2257 -21.2251 -21.2244 -21.2244 -21.2209
   -21.2206 -21.2206 -21.2201 -21.2201 -21.2171 -21.2165 -21.2130 -21.2130
   -21.2112 -21.2107 -21.2107 -21.2042 -21.2042 -21.2042 -21.2041 -21.2039
   -21.2039 -21.2008 -21.1992 -21.1974 -21.1973 -21.1946 -21.1946 -21.1912
   -21.1912 -21.1884 -21.1873 -21.1873 -21.1818 -21.1817 -21.1779 -21.1778
   -21.1777 -21.1773 -21.1773 -21.1760 -21.1721 -21.1721 -21.1700 -21.1699
   -21.1645 -21.1642 -21.1642 -21.1625 -21.1624 -21.1615 -21.1615 -21.1588
   -21.1587 -21.1579 -21.1578 -21.1575 -21.1573 -21.1563 -21.1562 -21.1556
   -21.1532 -21.1531 -21.1528 -21.1528 -21.1528 -21.1526 -21.1519 -21.1519
   -21.1481 -21.1465 -21.1465 -21.1457 -21.1454 -21.1454 -21.1446 -21.1445
   -21.1445 -21.1430 -21.1430 -21.1421 -21.1396 -21.1396 -21.1335 -21.1335
   -21.1300 -21.1300 -21.1283 -21.1283 -21.1263 -21.1205 -21.1205 -21.1190
   -21.1190 -21.1167 -21.1167 -21.1121 -21.1110 -21.1110 -21.1067 -21.1062
   -21.0932 -21.0920 -21.0920 -21.0864 -21.0851 -21.0851 -21.0839 -21.0808
   -21.0805 -21.0805 -21.0798 -21.0797 -21.0779 -21.0749 -21.0749 -21.0722
   -21.0715 -21.0715 -21.0690 -21.0690 -21.0679 -21.0679 -21.0670 -21.0669
   -20.9639 -20.9639 -20.9629 -20.9629 -20.9560 -20.9559 -20.9554 -20.9554
   -20.9547 -20.9547 -20.9532 -20.9531 -20.9483 -20.9473 -20.9472 -20.9472
   -20.9468 -20.9468 -20.9396 -20.9392 -20.9392 -20.9390 -20.9390 -20.9385
   -20.9213 -20.9201 -20.9188 -20.9187 -20.9183 -20.9178 -20.9174 -20.9174
   -20.9166 -20.9157 -20.9104 -20.9104 -20.9096 -20.9093 -20.9093 -20.9062
   -20.9009 -20.9009 -20.9002 -20.9002 -20.8941 -20.8941 -20.8925 -20.8924
   -20.8865 -20.8857 -20.8796 -20.8796 -20.8794 -20.8794 -20.8786 -20.8782
   -20.8782 -20.8776 -20.8773 -20.8773 -20.8768 -20.8768 -20.8750 -20.8750
   -20.8703 -20.8690 -20.8680 -20.8680 -20.8677 -20.8664 -20.8664 -20.8663
   -20.8605 -20.8605 -20.8603 -20.8603 -20.8569 -20.8569 -20.8560 -20.8559
    -8.8971  -8.2760  -8.2432  -8.2431  -7.6353  -7.6352  -7.5463  -7.0648
    -7.0648  -6.9156  -6.9148  -6.9148  -6.9095  -6.9094  -6.5369  -6.5368
    -6.4982  -6.4982  -6.4948  -5.9381  -5.9381  -5.9344  -5.8832  -5.8832
    -5.1955  -5.1955  -5.1942  -5.0957  -5.0957  -5.0010  -4.7463  -4.7463
    -4.7056  -4.3646  -4.3645  -4.3138  -4.3073  -4.3073  -4.2391  -4.2390
    -3.8690  -3.8651  -3.8651  -3.5598  -3.5598  -3.0685  -3.0684  -3.0642
    -3.0093  -3.0093  -3.0080  -2.8974  -2.8973  -2.8455  -2.8455  -2.7204
    -2.7203  -2.6065  -1.6544  -1.6544  -0.8779  -0.8779  -0.6974  -0.1991
    -0.1991  -0.1182  -0.1182  -0.1107  -0.1107   0.0268   0.0268   0.1121
     0.1284   0.1284   0.3953   0.3953   0.4107   0.4252   0.4252   0.7618
     0.7619   0.7691   0.8953   0.8953   1.1679   1.1679   1.2570   1.3369
     1.3369   1.3503   1.3927   1.3927   1.7931   1.7951   1.7952   1.9140
     1.9140   1.9278   1.9606   1.9606   1.9981   1.9981   2.0741   2.1205
     2.1205   2.1661   2.1661   2.3627   2.3720   2.3720   2.3756   2.3809
     2.4444   2.4445   2.5259   2.5259   2.6239   2.6239   2.7617   2.7895
     2.7895   2.8402   2.8716   3.0223   3.0224   3.0533   3.0923   3.0924
     3.3274   3.3590   3.6097   3.6097   3.9196   3.9196   3.9209   4.0275
     4.0275   4.1428   4.1429   4.2883   4.3486   4.5848   4.5848   4.5945
     4.8756   4.8853   4.8853   5.0128   5.0128   5.0494   5.0494   5.0648
     5.2183   5.2183   5.2686   5.2687   5.2936   5.2937   5.3044   5.3833
     5.5196   5.5196   5.6112   5.6324   5.6325   5.6871   5.6872   5.7719
     5.7859   5.7859   5.8649   6.0078   6.1273   6.1349   6.1349   6.2287
     6.2287   6.3307   6.6414   6.6414   6.6613   6.6613   6.9568   7.0028
     7.0523   7.0724   7.0724   7.2253   7.2253   7.2401   7.5154   7.5154
     7.5196   7.5196   7.5296   7.5335   7.5460   7.5460   7.5524   7.5855
     7.6233   7.8751   7.8751   7.9028   7.9028   7.9817   7.9818   7.9839
     8.0031   8.0031   8.2164   8.2165   8.2315   8.2734   8.2734   8.4203
     8.4204   8.4808

     the Fermi energy is     3.2267 ev

!    total energy              =  -11428.45356378 Ry
     estimated scf accuracy    <       0.00000022 Ry
     smearing contrib. (-TS)   =      -0.01201572 Ry
     internal energy E=F+TS    =  -11428.44154806 Ry

     The total energy is F=E-TS. E is the sum of the following terms:
     one-electron contribution =  -34204.02495501 Ry
     hartree contribution      =   17518.56676611 Ry
     xc contribution           =   -2788.31436625 Ry
     ewald contribution        =    8045.33100708 Ry

     convergence has been achieved in  10 iterations

     Forces acting on atoms (cartesian axes, Ry/au):

     atom    1 type  1   force =    -0.00084781    0.00049921   -0.01272692
     atom    2 type  1   force =    -0.00034436    0.00020374   -0.01639311
     atom    3 type  1   force =    -0.00078529    0.00044308   -0.01322896
     atom    4 type  1   force =     0.00060814   -0.00036472    0.01684719
     atom    5 type  1   force =    -0.00060523    0.00036362   -0.01684439
     atom    6 type  1   force =     0.00079712   -0.00044990    0.01325411
     atom    7 type  1   force =     0.00034904   -0.00019927    0.01640268
     atom    8 type  1   force =     0.00087281   -0.00050067    0.01271671
     atom    9 type  1   force =    -0.00085015    0.00048120   -0.01272924
     atom   10 type  1   force =    -0.00034706    0.00019576   -0.01638185
     atom   11 type  1   force =    -0.00078337    0.00046320   -0.01322899
     atom   12 type  1   force =     0.00061234   -0.00034091    0.01684704
     atom   13 type  1   force =    -0.00061167    0.00033878   -0.01684371
     atom   14 type  1   force =     0.00079696   -0.00047003    0.01325639
     atom   15 type  1   force =     0.00034986   -0.00020437    0.01640179
     atom   16 type  1   force =     0.00087802   -0.00050968    0.01272005
     atom   17 type  1   force =    -0.00084672    0.00049495   -0.01271050
     atom   18 type  1   force =    -0.00032646    0.00019551   -0.01640024
     atom   19 type  1   force =    -0.00076892    0.00043309   -0.01321065
     atom   20 type  1   force =     0.00063520   -0.00037525    0.01687073
     atom   21 type  1   force =    -0.00064655    0.00038270   -0.01684255
     atom   22 type  1   force =     0.00075588   -0.00042528    0.01325469
     atom   23 type  1   force =     0.00032774   -0.00018479    0.01637652
     atom   24 type  1   force =     0.00084292   -0.00047844    0.01272827
     atom   25 type  1   force =    -0.00084300    0.00048114   -0.01270920
     atom   26 type  1   force =    -0.00032912    0.00018365   -0.01639999
     atom   27 type  1   force =    -0.00076693    0.00045310   -0.01321192
     atom   28 type  1   force =     0.00063259   -0.00035753    0.01686671
     atom   29 type  1   force =    -0.00064727    0.00036533   -0.01684436
     atom   30 type  1   force =     0.00075212   -0.00044649    0.01325438
     atom   31 type  1   force =     0.00032967   -0.00019525    0.01639028
     atom   32 type  1   force =     0.00084423   -0.00049532    0.01272341
     atom   33 type  1   force =    -0.00082098    0.00048272   -0.01271988
     atom   34 type  1   force =    -0.00028902    0.00017065   -0.01639183
     atom   35 type  1   force =    -0.00077598    0.00044141   -0.01323695
     atom   36 type  1   force =     0.00064190   -0.00038016    0.01684504
     atom   37 type  1   force =    -0.00063395    0.00037625   -0.01685863
     atom   38 type  1   force =     0.00077355   -0.00043999    0.01321414
     atom   39 type  1   force =     0.00028810   -0.00015947    0.01639216
     atom   40 type  1   force =     0.00082090   -0.00045794    0.01271867
     atom   41 type  1   force =    -0.00081894    0.00046373   -0.01271101
     atom   42 type  1   force =    -0.00028489    0.00016111   -0.01639746
     atom   43 type  1   force =    -0.00077985    0.00045567   -0.01324407
     atom   44 type  1   force =     0.00064288   -0.00036054    0.01684271
     atom   45 type  1   force =    -0.00063527    0.00035685   -0.01685847
     atom   46 type  1   force =     0.00077847   -0.00045586    0.01321971
     atom   47 type  1   force =     0.00028523   -0.00017202    0.01639188
     atom   48 type  1   force =     0.00081504   -0.00048643    0.01271950
     atom   49 type  1   force =    -0.00084167    0.00049860   -0.01273451
     atom   50 type  1   force =    -0.00031718    0.00018547   -0.01637702
     atom   51 type  1   force =    -0.00077697    0.00043691   -0.01325334
     atom   52 type  1   force =     0.00063646   -0.00037556    0.01682527
     atom   53 type  1   force =    -0.00062227    0.00036696   -0.01686713
     atom   54 type  1   force =     0.00077801   -0.00044043    0.01322771
     atom   55 type  1   force =     0.00030856   -0.00017421    0.01640567
     atom   56 type  1   force =     0.00081689   -0.00046095    0.01270172
     atom   57 type  1   force =    -0.00084490    0.00047540   -0.01273289
     atom   58 type  1   force =    -0.00031766    0.00018143   -0.01637850
     atom   59 type  1   force =    -0.00077499    0.00045861   -0.01325273
     atom   60 type  1   force =     0.00063367   -0.00035778    0.01682055
     atom   61 type  1   force =    -0.00062288    0.00035213   -0.01685911
     atom   62 type  1   force =     0.00077821   -0.00045786    0.01323140
     atom   63 type  1   force =     0.00031026   -0.00018351    0.01639943
     atom   64 type  1   force =     0.00081453   -0.00048133    0.01271360

     Total force =     0.119466     Total SCF correction =     0.002567
     Energy error            =      2.1E-02 Ry
     Gradient error          =      1.7E-02 Ry/Bohr

     number of scf cycles    =   2
     number of bfgs steps    =   1

     energy             old  =  -11428.4321230103 Ry
     energy             new  =  -11428.4535637770 Ry

     CASE: energy            _new < energy            _old

     new trust radius        =       0.0267815019 bohr
     new conv_thr            =       0.0000001687 Ry


ATOMIC_POSITIONS (angstrom)
Ge            1.0018630954        0.5799642671        7.4390193131
Ge            1.0027122345        0.5794632749        4.9778579618
Ge            3.0082950982        1.7382730828       10.7115198591
Ge            3.0106026370        1.7369354311        8.3033787479
Ge            5.0148622902        2.8965598679       13.9830443584
Ge            5.0171873699        2.8952124703       11.5749281915
Ge            1.0036685678        0.5789228950       17.3085728012
Ge            1.0045264511        0.5784232803       14.8473959388
Ge            3.0082261807        4.0550596941        7.4390242378
Ge            3.0090747014        4.0545796615        4.9778644976
Ge            5.0146576906        5.2134239419       10.7115172422
Ge            5.0169720608        5.2120909931        8.3033798334
Ge            7.0212222733        6.3716539509       13.9830433983
Ge            7.0235556411        6.3703106597       11.5749309118
Ge            3.0100252408        4.0540217774       17.3085720475
Ge            3.0108942749        4.0535242480       14.8473972669
Ge            5.0145923192        0.5799611847        7.4390317564
Ge            5.0154587867        0.5794617519        4.9778589220
Ge            7.0210448542        1.7382548952       10.7115220597
Ge            7.0233642249        1.7369206973        8.3033948869
Ge            9.0275558043        2.8965758262       13.9830348097
Ge            9.0298751741        2.8952390386       11.5749240661
Ge            5.0163642267        0.5789336517       17.3085501779
Ge            5.0172203998        0.5784448017       14.8473923914
Ge            7.0209598223        4.0550588577        7.4390307539
Ge            7.0218163964        4.0545633200        4.9778581185
Ge            9.0274135455        5.2134117003       10.7115221176
Ge            9.0297251534        5.2120714279        8.3033925446
Ge           11.0339220469        6.3716745590       13.9830379637
Ge           11.0362373744        6.3703333023       11.5749250280
Ge            7.0227302138        4.0540431304       17.3085593540
Ge            7.0235862909        4.0535431854       14.8473989912
Ge            9.0273291433        0.5799579027        7.4390055026
Ge            9.0282066942        0.5794422697        4.9778640198
Ge           11.0337443165        1.7382754679       10.7115130866
Ge           11.0360561064        1.7369336143        8.3033743480
Ge           13.0403052391        2.8965704552       13.9830266073
Ge           13.0426082203        2.8952341823       11.5749123565
Ge            9.0290668534        0.5789370885       17.3085511589
Ge            9.0299605581        0.5784398333       14.8473879097
Ge           11.0336919049        4.0550542536        7.4390150537
Ge           11.0345729199        4.0545537874        4.9778630117
Ge           13.0401057125        5.2134282512       10.7115109505
Ge           13.0424266300        5.2120958908        8.3033766909
Ge           15.0466635100        6.3716592106       13.9830246893
Ge           15.0489763167        6.3703298116       11.5749153416
Ge           11.0354393950        4.0540643662       17.3085506923
Ge           11.0363251611        4.0535345463       14.8473883717
Ge           13.0400213160        0.5799779628        7.4390093371
Ge           13.0409034642        0.5794508663        4.9778708291
Ge           15.0464807969        1.7382677521       10.7115052934
Ge           15.0488084628        1.7369274545        8.3033639395
Ge           17.0530199477        2.8965703761       13.9830300822
Ge           17.0553345692        2.8952375975       11.5749110555
Ge           13.0418197902        0.5789309612       17.3085626378
Ge           13.0426803130        0.5784443702       14.8473841969
Ge           15.0463868011        4.0550737443        7.4390107305
Ge           15.0472754193        4.0545796077        4.9778699133
Ge           17.0528481929        5.2134224355       10.7115044548
Ge           17.0551689979        5.2120787896        8.3033616820
Ge           19.0593879039        6.3716691944       13.9830352007
Ge           19.0616972084        6.3703309340       11.5749110364
Ge           15.0481864722        4.0540451958       17.3085579585
Ge           15.0490488740        4.0535357559       14.8473957588



     Writing output data file ./out/ge.save/
     NEW-OLD atomic charge density approx. for the potential

     negative rho (up, down):  1.488E-07 0.000E+00

     total cpu time spent up to now is       91.4 secs

     Self-consistent Calculation

     iteration #  1     ecut=    60.00 Ry     beta= 0.40
     Davidson diagonalization with overlap
     ethr =  1.00E-06,  avg # of iterations = 11.0

     total cpu time spent up to now is       99.2 secs

     total energy              =  -11428.47119576 Ry
     estimated scf accuracy    <       0.00105615 Ry

     iteration #  2     ecut=    60.00 Ry     beta= 0.40
     Davidson diagonalization with overlap
     ethr =  1.18E-07,  avg # of iterations =  4.0

     total cpu time spent up to now is      102.8 secs

     total energy              =  -11428.47116018 Ry
     estimated scf accuracy    <       0.00116693 Ry

     iteration #  3     ecut=    60.00 Ry     beta= 0.40
     Davidson diagonalization with overlap
     ethr =  1.18E-07,  avg # of iterations =  2.0

     total cpu time spent up to now is      105.5 secs

     total energy              =  -11428.47101499 Ry
     estimated scf accuracy    <       0.00717860 Ry

     iteration #  4     ecut=    60.00 Ry     beta= 0.40
     Davidson diagonalization with overlap
     ethr =  1.18E-07,  avg # of iterations =  2.0

     total cpu time spent up to now is      108.2 secs

     total energy              =  -11428.47118604 Ry
     estimated scf accuracy    <       0.00547678 Ry

     iteration #  5     ecut=    60.00 Ry     beta= 0.40
     Davidson diagonalization with overlap
     ethr =  1.18E-07,  avg # of iterations =  2.0

     total cpu time spent up to now is      110.8 secs

     total energy              =  -11428.47143385 Ry
     estimated scf accuracy    <       0.00026262 Ry

     iteration #  6     ecut=    60.00 Ry     beta= 0.40
     Davidson diagonalization with overlap
     ethr =  2.93E-08,  avg # of iterations =  2.0

     total cpu time spent up to now is      113.5 secs

     total energy              =  -11428.47145379 Ry
     estimated scf accuracy    <       0.00005151 Ry

     iteration #  7     ecut=    60.00 Ry     beta= 0.40
     Davidson diagonalization with overlap
     ethr =  5.75E-09,  avg # of iterations =  2.0

     total cpu time spent up to now is      116.2 secs

     total energy              =  -11428.47146103 Ry
     estimated scf accuracy    <       0.00002855 Ry

     iteration #  8     ecut=    60.00 Ry     beta= 0.40
     Davidson diagonalization with overlap
     ethr =  3.19E-09,  avg # of iterations =  2.0

     total cpu time spent up to now is      118.9 secs

     total energy              =  -11428.47146369 Ry
     estimated scf accuracy    <       0.00000215 Ry

     iteration #  9     ecut=    60.00 Ry     beta= 0.40
     Davidson diagonalization with overlap
     ethr =  2.40E-10,  avg # of iterations =  3.0

     total cpu time spent up to now is      121.7 secs

     total energy              =  -11428.47146398 Ry
     estimated scf accuracy    <       0.00000171 Ry

     iteration # 10     ecut=    60.00 Ry     beta= 0.40
     Davidson diagonalization with overlap
     ethr =  1.91E-10,  avg # of iterations =  2.0

     total cpu time spent up to now is      124.4 secs

     total energy              =  -11428.47146413 Ry
     estimated scf accuracy    <       0.00000025 Ry

     iteration # 11     ecut=    60.00 Ry     beta= 0.40
     Davidson diagonalization with overlap
     ethr =  2.82E-11,  avg # of iterations =  2.0

     total cpu time spent up to now is      127.1 secs

     End of self-consistent calculation

          k = 0.0000 0.0000 0.0000 ( 65858 PWs)   bands (ev):

   -21.4151 -21.4151 -21.4102 -21.4102 -21.4081 -21.4081 -21.4067 -21.3981
   -21.3975 -21.3932 -21.3932 -21.3899 -21.3899 -21.3872 -21.3872 -21.3865
   -21.3846 -21.3796 -21.3796 -21.3795 -21.3795 -21.3699 -21.3699 -21.3566
   -21.3536 -21.3530 -21.3530 -21.3526 -21.3526 -21.3522 -21.3521 -21.3521
   -21.3519 -21.3519 -21.3514 -21.3513 -21.3509 -21.3482 -21.3482 -21.3479
   -21.3479 -21.3353 -21.3289 -21.3289 -21.3236 -21.3225 -21.3225 -21.3222
   -21.3222 -21.3222 -21.3218 -21.3218 -21.3213 -21.3213 -21.3210 -21.3210
   -21.3202 -21.3202 -21.3193 -21.3191 -21.3188 -21.3188 -21.3152 -21.3076
   -21.3023 -21.3023 -21.3011 -21.3011 -21.2849 -21.2849 -21.2835 -21.2835
   -21.2757 -21.2757 -21.2734 -21.2732 -21.2727 -21.2713 -21.2713 -21.2708
   -21.2708 -21.2708 -21.2708 -21.2704 -21.2704 -21.2698 -21.2691 -21.2691
   -21.2686 -21.2686 -21.2624 -21.2589 -21.2586 -21.2586 -21.2556 -21.2555
   -21.2555 -21.2507 -21.2507 -21.2440 -21.2440 -21.2384 -21.2384 -21.2304
   -21.2302 -21.2302 -21.2278 -21.2248 -21.2248 -21.2228 -21.2228 -21.2227
   -21.2227 -21.2173 -21.2173 -21.2162 -21.2151 -21.2130 -21.2130 -21.2127
   -21.2127 -21.2124 -21.2080 -21.2080 -21.2079 -21.2079 -21.2073 -21.2054
   -21.2044 -21.2044 -21.2041 -21.2009 -21.2009 -21.1999 -21.1996 -21.1996
   -21.1988 -21.1988 -21.1973 -21.1966 -21.1966 -21.1937 -21.1937 -21.1883
   -21.1883 -21.1867 -21.1809 -21.1809 -21.1767 -21.1752 -21.1752 -21.1740
   -21.1735 -21.1735 -21.1676 -21.1663 -21.1657 -21.1651 -21.1642 -21.1599
   -21.1599 -21.1592 -21.1592 -21.1579 -21.1579 -21.1575 -21.1575 -21.1569
   -21.1569 -21.1567 -21.1567 -21.1558 -21.1558 -21.1545 -21.1541 -21.1541
   -21.1526 -21.1524 -21.1524 -21.1442 -21.1433 -21.1433 -21.1432 -21.1432
   -21.1421 -21.1418 -21.1386 -21.1386 -21.1369 -21.1353 -21.1353 -21.1349
   -21.1349 -21.1349 -21.1327 -21.1327 -21.1282 -21.1282 -21.1276 -21.1276
   -21.1250 -21.1250 -21.1219 -21.1177 -21.1177 -21.1091 -21.1091 -21.1076
   -21.1071 -21.1071 -21.1058 -21.1058 -21.1043 -21.1021 -21.1021 -21.0957
   -21.0907 -21.0873 -21.0873 -21.0789 -21.0789 -21.0787 -21.0787 -21.0763
   -21.0715 -21.0692 -21.0683 -21.0678 -21.0678 -21.0671 -21.0671 -21.0666
   -21.0666 -21.0665 -21.0633 -21.0633 -21.0632 -21.0632 -21.0592 -21.0592
   -20.9585 -20.9585 -20.9574 -20.9574 -20.9511 -20.9511 -20.9506 -20.9506
   -20.9495 -20.9495 -20.9478 -20.9478 -20.9431 -20.9422 -20.9422 -20.9421
   -20.9421 -20.9417 -20.9348 -20.9348 -20.9347 -20.9347 -20.9345 -20.9334
   -20.9171 -20.9159 -20.9140 -20.9138 -20.9138 -20.9137 -20.9122 -20.9122
   -20.9110 -20.9102 -20.9055 -20.9055 -20.9050 -20.9047 -20.9047 -20.9015
   -20.8966 -20.8966 -20.8960 -20.8960 -20.8895 -20.8895 -20.8881 -20.8881
   -20.8809 -20.8803 -20.8754 -20.8754 -20.8753 -20.8752 -20.8752 -20.8749
   -20.8745 -20.8745 -20.8734 -20.8734 -20.8733 -20.8733 -20.8716 -20.8716
   -20.8656 -20.8631 -20.8628 -20.8627 -20.8627 -20.8613 -20.8613 -20.8609
   -20.8574 -20.8574 -20.8567 -20.8567 -20.8539 -20.8539 -20.8528 -20.8528
    -8.8916  -8.2450  -8.2408  -8.2407  -7.6071  -7.6071  -7.4990  -7.0747
    -7.0746  -6.9295  -6.9295  -6.9261  -6.8638  -6.8638  -6.5239  -6.5239
    -6.4902  -6.4902  -6.4837  -5.9045  -5.9045  -5.8977  -5.8500  -5.8500
    -5.2058  -5.2029  -5.2029  -5.1117  -5.1117  -5.0206  -4.7715  -4.7715
    -4.7047  -4.3612  -4.3611  -4.2779  -4.2702  -4.2702  -4.2087  -4.2087
    -3.8301  -3.8175  -3.8175  -3.5345  -3.5345  -3.0616  -3.0616  -3.0591
    -2.9935  -2.9906  -2.9906  -2.8916  -2.8916  -2.8833  -2.8833  -2.6889
    -2.6889  -2.6827  -1.6609  -1.6609  -0.8443  -0.8443  -0.7519  -0.1738
    -0.1738  -0.1034  -0.1034  -0.1026  -0.1026   0.0512   0.0512   0.0849
     0.1030   0.1030   0.3690   0.3828   0.3828   0.4114   0.4114   0.7858
     0.7858   0.7956   0.9052   0.9052   1.1481   1.1481   1.2321   1.3841
     1.3841   1.4001   1.4176   1.4177   1.7760   1.7768   1.7768   1.9738
     1.9738   1.9771   1.9771   1.9913   2.0092   2.0093   2.0661   2.1152
     2.1152   2.1492   2.1492   2.3635   2.3635   2.3723   2.3767   2.4035
     2.4444   2.4444   2.5865   2.5865   2.5891   2.5891   2.7316   2.7614
     2.7614   2.8784   2.9185   2.9866   3.0164   3.0164   3.0931   3.0931
     3.3812   3.4233   3.6119   3.6119   3.9186   3.9186   3.9853   4.0144
     4.0144   4.1374   4.1374   4.3060   4.4162   4.6235   4.6235   4.6389
     4.8670   4.8735   4.8735   5.0076   5.0076   5.0826   5.0826   5.1025
     5.2150   5.2150   5.2957   5.2957   5.2973   5.2974   5.3030   5.3878
     5.5503   5.5504   5.5830   5.6073   5.6074   5.6840   5.6840   5.7629
     5.7910   5.7910   5.8536   6.0155   6.0928   6.0928   6.1377   6.2004
     6.2004   6.3702   6.6108   6.6108   6.6518   6.6518   6.9541   6.9992
     7.0177   7.0766   7.0766   7.2891   7.2891   7.3102   7.4830   7.4830
     7.4950   7.5157   7.5157   7.5176   7.5176   7.5638   7.5711   7.6040
     7.6345   7.8426   7.8426   7.8859   7.8859   7.9652   7.9652   7.9682
     8.0300   8.0300   8.1326   8.1326   8.1483   8.2770   8.2771   8.4305
     8.4305   8.4832

     the Fermi energy is     3.2498 ev

!    total energy              =  -11428.47146413 Ry
     estimated scf accuracy    <       0.00000008 Ry
     smearing contrib. (-TS)   =      -0.00707897 Ry
     internal energy E=F+TS    =  -11428.46438516 Ry

     The total energy is F=E-TS. E is the sum of the following terms:
     one-electron contribution =  -34094.49492976 Ry
     hartree contribution      =   17463.90786632 Ry
     xc contribution           =   -2788.24292687 Ry
     ewald contribution        =    7990.36560515 Ry

     convergence has been achieved in  11 iterations

     Forces acting on atoms (cartesian axes, Ry/au):

     atom    1 type  1   force =    -0.00039745    0.00023642   -0.00980249
     atom    2 type  1   force =    -0.00027110    0.00016135   -0.01532117
     atom    3 type  1   force =    -0.00027827    0.00015506   -0.00309829
     atom    4 type  1   force =     0.00011325   -0.00007192    0.00632231
     atom    5 type  1   force =    -0.00010911    0.00006957   -0.00631078
     atom    6 type  1   force =     0.00027487   -0.00015348    0.00308046
     atom    7 type  1   force =     0.00026529   -0.00014557    0.01532775
     atom    8 type  1   force =     0.00040244   -0.00022645    0.00979373
     atom    9 type  1   force =    -0.00039846    0.00022336   -0.00979843
     atom   10 type  1   force =    -0.00027096    0.00015164   -0.01531918
     atom   11 type  1   force =    -0.00027982    0.00016666   -0.00310456
     atom   12 type  1   force =     0.00011401   -0.00005928    0.00631679
     atom   13 type  1   force =    -0.00010993    0.00005719   -0.00630600
     atom   14 type  1   force =     0.00027672   -0.00016491    0.00308674
     atom   15 type  1   force =     0.00026260   -0.00015889    0.01532748
     atom   16 type  1   force =     0.00040359   -0.00023913    0.00979746
     atom   17 type  1   force =    -0.00041274    0.00024416   -0.00980430
     atom   18 type  1   force =    -0.00025721    0.00015576   -0.01531345
     atom   19 type  1   force =    -0.00026533    0.00014620   -0.00310559
     atom   20 type  1   force =     0.00012826   -0.00007967    0.00630903
     atom   21 type  1   force =    -0.00011565    0.00007133   -0.00629786
     atom   22 type  1   force =     0.00027582   -0.00015292    0.00308161
     atom   23 type  1   force =     0.00027209   -0.00015195    0.01533534
     atom   24 type  1   force =     0.00041169   -0.00023036    0.00978976
     atom   25 type  1   force =    -0.00041175    0.00023174   -0.00979977
     atom   26 type  1   force =    -0.00025944    0.00014271   -0.01531371
     atom   27 type  1   force =    -0.00026414    0.00015953   -0.00310964
     atom   28 type  1   force =     0.00012637   -0.00006699    0.00630576
     atom   29 type  1   force =    -0.00011106    0.00005929   -0.00629151
     atom   30 type  1   force =     0.00027481   -0.00016523    0.00308654
     atom   31 type  1   force =     0.00027297   -0.00016276    0.01533733
     atom   32 type  1   force =     0.00041021   -0.00024439    0.00979322
     atom   33 type  1   force =    -0.00041042    0.00024413   -0.00979529
     atom   34 type  1   force =    -0.00025936    0.00015420   -0.01532292
     atom   35 type  1   force =    -0.00027968    0.00015632   -0.00309810
     atom   36 type  1   force =     0.00011076   -0.00006986    0.00631860
     atom   37 type  1   force =    -0.00011042    0.00007017   -0.00630031
     atom   38 type  1   force =     0.00028145   -0.00015688    0.00308230
     atom   39 type  1   force =     0.00027444   -0.00015586    0.01532883
     atom   40 type  1   force =     0.00042009   -0.00023901    0.00979287
     atom   41 type  1   force =    -0.00040996    0.00022971   -0.00979495
     atom   42 type  1   force =    -0.00025924    0.00014515   -0.01531917
     atom   43 type  1   force =    -0.00028100    0.00016805   -0.00310393
     atom   44 type  1   force =     0.00011133   -0.00005867    0.00631294
     atom   45 type  1   force =    -0.00011102    0.00005718   -0.00629420
     atom   46 type  1   force =     0.00028238   -0.00016918    0.00308762
     atom   47 type  1   force =     0.00027611   -0.00016180    0.01532930
     atom   48 type  1   force =     0.00042309   -0.00024779    0.00979646
     atom   49 type  1   force =    -0.00041938    0.00024764   -0.00979212
     atom   50 type  1   force =    -0.00027930    0.00016341   -0.01532360
     atom   51 type  1   force =    -0.00027139    0.00015063   -0.00310487
     atom   52 type  1   force =     0.00011346   -0.00007030    0.00632176
     atom   53 type  1   force =    -0.00012741    0.00007981   -0.00630428
     atom   54 type  1   force =     0.00026398   -0.00014494    0.00308294
     atom   55 type  1   force =     0.00025394   -0.00014272    0.01532476
     atom   56 type  1   force =     0.00040176   -0.00022466    0.00978721
     atom   57 type  1   force =    -0.00041840    0.00023623   -0.00978840
     atom   58 type  1   force =    -0.00027734    0.00015788   -0.01532277
     atom   59 type  1   force =    -0.00027042    0.00016261   -0.00310929
     atom   60 type  1   force =     0.00011135   -0.00005956    0.00631633
     atom   61 type  1   force =    -0.00012721    0.00006711   -0.00630301
     atom   62 type  1   force =     0.00026172   -0.00015890    0.00308785
     atom   63 type  1   force =     0.00025555   -0.00015160    0.01532862
     atom   64 type  1   force =     0.00039795   -0.00023653    0.00978424

     Total force =     0.078034     Total SCF correction =     0.001477
     Energy error            =      1.8E-02 Ry
     Gradient error          =      1.5E-02 Ry/Bohr

     number of scf cycles    =   3
     number of bfgs steps    =   2

     energy             old  =  -11428.4535637770 Ry
     energy             new  =  -11428.4714641303 Ry

     CASE: energy            _new < energy            _old

     new trust radius        =       0.0401722528 bohr
     new conv_thr            =       0.0000001534 Ry


ATOMIC_POSITIONS (angstrom)
Ge            1.0010824967        0.5804260872        7.4241715405
Ge            1.0023118643        0.5797004308        4.9566188228
Ge            3.0076470947        1.7386380876       10.7017856851
Ge            3.0110336341        1.7366750120        8.3176458769
Ge            5.0144369050        2.8968169230       13.9687889125
Ge            5.0178393348        2.8948447423       11.5846548362
Ge            1.0040678115        0.5787037347       17.3298214943
Ge            1.0053193656        0.5779741708       14.8622337151
Ge            3.0074440337        4.0555004202        7.4241815128
Ge            3.0086736551        4.0548052194        4.9566295734
Ge            5.0140076948        5.2138081648       10.7017765083
Ge            5.0174052354        5.2118522617        8.3176421299
Ge            7.0207944358        6.3718898476       13.9687921564
Ge            7.0242102676        6.3699240336       11.5846642649
Ge            3.0104197153        4.0537828661       17.3298202339
Ge            3.0116893360        4.0530563827       14.8622390423
Ge            5.0137979557        0.5804291256        7.4241865717
Ge            5.0150774292        0.5796929014        4.9566268863
Ge            7.0204158138        1.7386060841       10.7017825833
Ge            7.0238199407        1.7366484387        8.3176553236
Ge            9.0271127302        2.8968399129       13.9687887634
Ge            9.0305148045        2.8948804703       11.5846506513
Ge            5.0167597266        0.5787122736       17.3297983261
Ge            5.0180109632        0.5779991668       14.8622260234
Ge            7.0201672868        4.0555071384        7.4241895547
Ge            7.0214307930        4.0547754064        4.9566256301
Ge            9.0267867728        5.2137853783       10.7017788331
Ge            9.0301778718        5.2118192423        8.3176491009
Ge           11.0334835804        6.3719194555       13.9687986222
Ge           11.0368751347        6.3699538596       11.5846564481
Ge            7.0231269289        4.0538070654       17.3298125817
Ge            7.0243758241        4.0530764403       14.8622374691
Ge            9.0265406662        0.5804243184        7.4241608617
Ge            9.0278307372        0.5796653169        4.9566250197
Ge           11.0330936160        1.7386422372       10.7017768073
Ge           11.0364857405        1.7366738765        8.3176366862
Ge           13.0398736940        2.8968316422       13.9687752178
Ge           13.0432553719        2.8948698810       11.5846343820
Ge            9.0294555723        0.5787142341       17.3297942727
Ge            9.0307613588        0.5779857269       14.8622227233
Ge           11.0329033516        4.0554985284        7.4241738310
Ge           11.0341976424        4.0547643966        4.9566269491
Ge           13.0394526190        5.2138146287       10.7017683154
Ge           13.0428584339        5.2118581865        8.3176343259
Ge           15.0462294831        6.3718974322       13.9687784500
Ge           15.0496254679        6.3699452798       11.5846434077
Ge           11.0358316815        4.0538362651       17.3297940939
Ge           11.0371283940        4.0530626316       14.8622266871
Ge           13.0392134954        0.5804540312        7.4241680345
Ge           13.0404989022        0.5796855833        4.9566338103
Ge           15.0458401740        1.7386268551       10.7017597617
Ge           15.0492472485        1.7366657921        8.3176253624
Ge           17.0525694614        2.8968400668       13.9687755862
Ge           17.0559652728        2.8948853251       11.5846339425
Ge           13.0421974861        0.5787179025       17.3298058304
Ge           13.0434616086        0.5780047329       14.8622119145
Ge           15.0455799059        4.0555301181        7.4241733489
Ge           15.0468746524        4.0548102725        4.9566333332
Ge           17.0522092698        5.2138022559       10.7017546117
Ge           17.0556044696        5.2118355709        8.3176171996
Ge           19.0589384408        6.3719192331       13.9687837033
Ge           19.0623251954        6.3699561766       11.5846386519
Ge           15.0485662458        4.0538206339       17.3298031265
Ge           15.0498275565        4.0530748800       14.8622245236



     Writing output data file ./out/ge.save/
     NEW-OLD atomic charge density approx. for the potential

     negative rho (up, down):  4.036E-07 0.000E+00

     total cpu time spent up to now is      128.2 secs

     Self-consistent Calculation

     iteration #  1     ecut=    60.00 Ry     beta= 0.40
     Davidson diagonalization with overlap
     ethr =  1.00E-06,  avg # of iterations = 10.0

     negative rho (up, down):  2.573E-08 0.000E+00

     total cpu time spent up to now is      136.2 secs

     total energy              =  -11428.48265940 Ry
     estimated scf accuracy    <       0.00272196 Ry

     iteration #  2     ecut=    60.00 Ry     beta= 0.40
     Davidson diagonalization with overlap
     ethr =  3.04E-07,  avg # of iterations =  7.0

     total cpu time spent up to now is      140.0 secs

     total energy              =  -11428.48173252 Ry
     estimated scf accuracy    <       0.02174214 Ry

     iteration #  3     ecut=    60.00 Ry     beta= 0.40
     Davidson diagonalization with overlap
     ethr =  3.04E-07,  avg # of iterations =  7.0

     total cpu time spent up to now is      143.1 secs

     total energy              =  -11428.48352405 Ry
     estimated scf accuracy    <       0.00082138 Ry

     iteration #  4     ecut=    60.00 Ry     beta= 0.40
     Davidson diagonalization with overlap
     ethr =  9.17E-08,  avg # of iterations =  2.0

     total cpu time spent up to now is      145.8 secs

     total energy              =  -11428.48345601 Ry
     estimated scf accuracy    <       0.00172750 Ry

     iteration #  5     ecut=    60.00 Ry     beta= 0.40
     Davidson diagonalization with overlap
     ethr =  9.17E-08,  avg # of iterations =  2.0

     total cpu time spent up to now is      148.5 secs

     total energy              =  -11428.48355850 Ry
     estimated scf accuracy    <       0.00174535 Ry

     iteration #  6     ecut=    60.00 Ry     beta= 0.40
     Davidson diagonalization with overlap
     ethr =  9.17E-08,  avg # of iterations =  1.0

     total cpu time spent up to now is      150.8 secs

     total energy              =  -11428.48364146 Ry
     estimated scf accuracy    <       0.00002580 Ry

     iteration #  7     ecut=    60.00 Ry     beta= 0.40
     Davidson diagonalization with overlap
     ethr =  2.88E-09,  avg # of iterations =  4.0

     total cpu time spent up to now is      153.7 secs

     total energy              =  -11428.48364050 Ry
     estimated scf accuracy    <       0.00007463 Ry

     iteration #  8     ecut=    60.00 Ry     beta= 0.40
     Davidson diagonalization with overlap
     ethr =  2.88E-09,  avg # of iterations =  3.0

     total cpu time spent up to now is      156.5 secs

     total energy              =  -11428.48364740 Ry
     estimated scf accuracy    <       0.00000297 Ry

     iteration #  9     ecut=    60.00 Ry     beta= 0.40
     Davidson diagonalization with overlap
     ethr =  3.32E-10,  avg # of iterations =  3.0

     total cpu time spent up to now is      159.3 secs

     total energy              =  -11428.48364775 Ry
     estimated scf accuracy    <       0.00000152 Ry

     iteration # 10     ecut=    60.00 Ry     beta= 0.40
     Davidson diagonalization with overlap
     ethr =  1.70E-10,  avg # of iterations =  2.0

     total cpu time spent up to now is      162.0 secs

     total energy              =  -11428.48364790 Ry
     estimated scf accuracy    <       0.00000023 Ry

     iteration # 11     ecut=    60.00 Ry     beta= 0.40
     Davidson diagonalization with overlap
     ethr =  2.53E-11,  avg # of iterations =  2.0

     total cpu time spent up to now is      164.7 secs

     End of self-consistent calculation

          k = 0.0000 0.0000 0.0000 ( 65858 PWs)   bands (ev):

   -21.4038 -21.4038 -21.4033 -21.4033 -21.4013 -21.3989 -21.3989 -21.3882
   -21.3863 -21.3863 -21.3837 -21.3833 -21.3833 -21.3816 -21.3799 -21.3799
   -21.3744 -21.3731 -21.3731 -21.3720 -21.3720 -21.3671 -21.3671 -21.3605
   -21.3595 -21.3595 -21.3590 -21.3590 -21.3588 -21.3587 -21.3587 -21.3583
   -21.3583 -21.3583 -21.3582 -21.3570 -21.3547 -21.3547 -21.3544 -21.3544
   -21.3494 -21.3286 -21.3278 -21.3278 -21.3276 -21.3270 -21.3270 -21.3266
   -21.3266 -21.3263 -21.3261 -21.3261 -21.3253 -21.3253 -21.3248 -21.3242
   -21.3241 -21.3239 -21.3235 -21.3235 -21.3094 -21.3094 -21.3037 -21.2973
   -21.2960 -21.2960 -21.2900 -21.2900 -21.2807 -21.2805 -21.2799 -21.2798
   -21.2798 -21.2798 -21.2795 -21.2794 -21.2792 -21.2784 -21.2780 -21.2780
   -21.2774 -21.2774 -21.2772 -21.2771 -21.2760 -21.2760 -21.2737 -21.2737
   -21.2667 -21.2667 -21.2593 -21.2505 -21.2505 -21.2500 -21.2477 -21.2467
   -21.2467 -21.2408 -21.2408 -21.2365 -21.2365 -21.2256 -21.2255 -21.2202
   -21.2202 -21.2157 -21.2157 -21.2143 -21.2108 -21.2063 -21.2062 -21.2058
   -21.2050 -21.2039 -21.2039 -21.2035 -21.2035 -21.2027 -21.2015 -21.2015
   -21.1990 -21.1988 -21.1988 -21.1982 -21.1982 -21.1979 -21.1979 -21.1947
   -21.1947 -21.1929 -21.1929 -21.1879 -21.1879 -21.1865 -21.1865 -21.1845
   -21.1845 -21.1844 -21.1844 -21.1836 -21.1805 -21.1805 -21.1800 -21.1791
   -21.1791 -21.1705 -21.1677 -21.1677 -21.1647 -21.1646 -21.1646 -21.1636
   -21.1634 -21.1634 -21.1630 -21.1630 -21.1630 -21.1630 -21.1629 -21.1627
   -21.1627 -21.1594 -21.1594 -21.1574 -21.1572 -21.1572 -21.1572 -21.1552
   -21.1494 -21.1487 -21.1487 -21.1462 -21.1427 -21.1360 -21.1360 -21.1352
   -21.1352 -21.1351 -21.1350 -21.1318 -21.1312 -21.1225 -21.1225 -21.1220
   -21.1219 -21.1202 -21.1202 -21.1202 -21.1179 -21.1144 -21.1144 -21.1130
   -21.1129 -21.1125 -21.1122 -21.1122 -21.1107 -21.1106 -21.1082 -21.1075
   -21.1075 -21.1048 -21.1048 -21.0966 -21.0966 -21.0907 -21.0896 -21.0862
   -21.0862 -21.0839 -21.0839 -21.0835 -21.0835 -21.0811 -21.0811 -21.0753
   -21.0729 -21.0707 -21.0707 -21.0653 -21.0653 -21.0631 -21.0631 -21.0546
   -21.0520 -21.0507 -21.0490 -21.0490 -21.0470 -21.0470 -21.0451 -21.0451
   -21.0450 -21.0450 -21.0439 -21.0430 -21.0429 -21.0429 -21.0375 -21.0375
   -20.9415 -20.9415 -20.9405 -20.9405 -20.9350 -20.9350 -20.9345 -20.9345
   -20.9331 -20.9331 -20.9316 -20.9316 -20.9265 -20.9265 -20.9263 -20.9260
   -20.9260 -20.9245 -20.9193 -20.9193 -20.9192 -20.9192 -20.9189 -20.9177
   -20.9025 -20.9011 -20.8985 -20.8984 -20.8975 -20.8975 -20.8957 -20.8957
   -20.8940 -20.8931 -20.8910 -20.8906 -20.8906 -20.8901 -20.8901 -20.8878
   -20.8821 -20.8821 -20.8815 -20.8815 -20.8748 -20.8748 -20.8738 -20.8737
   -20.8646 -20.8645 -20.8640 -20.8638 -20.8616 -20.8616 -20.8613 -20.8613
   -20.8613 -20.8613 -20.8603 -20.8603 -20.8597 -20.8597 -20.8585 -20.8585
   -20.8499 -20.8469 -20.8465 -20.8465 -20.8462 -20.8455 -20.8455 -20.8452
   -20.8444 -20.8444 -20.8429 -20.8429 -20.8408 -20.8408 -20.8396 -20.8396
    -8.8721  -8.2246  -8.2246  -8.1936  -7.5592  -7.5591  -7.4364  -7.0717
    -7.0716  -6.9318  -6.9318  -6.9243  -6.8031  -6.8030  -6.4939  -6.4939
    -6.4657  -6.4657  -6.4565  -5.8541  -5.8541  -5.8443  -5.8012  -5.8012
    -5.2023  -5.1955  -5.1955  -5.1136  -5.1136  -5.0362  -4.7908  -4.7907
    -4.7025  -4.3549  -4.3549  -4.2297  -4.2216  -4.2216  -4.1669  -4.1669
    -3.7784  -3.7575  -3.7574  -3.5040  -3.5040  -3.0525  -3.0525  -3.0520
    -2.9733  -2.9660  -2.9660  -2.9324  -2.9323  -2.8636  -2.8636  -2.7538
    -2.6480  -2.6480  -1.6604  -1.6604  -0.8078  -0.8006  -0.8005  -0.1359
    -0.1359  -0.0830  -0.0830  -0.0729  -0.0728   0.0718   0.0886   0.0887
     0.0918   0.0918   0.3369   0.3502   0.3503   0.4482   0.4483   0.8241
     0.8241   0.8363   0.9298   0.9299   1.1433   1.1433   1.2059   1.4536
     1.4537   1.4567   1.4568   1.4722   1.7601   1.7601   1.7603   1.9577
     1.9577   2.0481   2.0481   2.0587   2.0706   2.0798   2.0799   2.1118
     2.1118   2.1344   2.1344   2.3576   2.3576   2.3669   2.4042   2.4396
     2.4420   2.4420   2.5529   2.5529   2.6682   2.6682   2.7021   2.7337
     2.7337   2.9195   2.9383   2.9868   3.0092   3.0092   3.0909   3.0909
     3.4517   3.5040   3.6149   3.6149   3.9170   3.9170   3.9999   3.9999
     4.0637   4.1296   4.1296   4.3260   4.5060   4.6763   4.6763   4.6972
     4.8605   4.8639   4.8639   5.0006   5.0007   5.1293   5.1294   5.1531
     5.2105   5.2105   5.2959   5.2959   5.3005   5.3404   5.3405   5.3905
     5.5566   5.5832   5.5832   5.5936   5.5938   5.6805   5.6805   5.7599
     5.7949   5.7949   5.8490   6.0259   6.0466   6.0466   6.1515   6.1691
     6.1691   6.4065   6.5821   6.5821   6.6374   6.6374   6.9566   6.9706
     7.0016   7.0712   7.0712   7.3448   7.3448   7.3703   7.4359   7.4359
     7.4629   7.4858   7.4858   7.5219   7.5220   7.6005   7.6058   7.6301
     7.6527   7.7913   7.7913   7.8923   7.8924   7.9366   7.9366   7.9406
     8.0570   8.0570   8.0669   8.0669   8.0732   8.2805   8.2805   8.4408
     8.4409   8.4866

     the Fermi energy is     3.2832 ev

!    total energy              =  -11428.48364784 Ry
     estimated scf accuracy    <       0.00000013 Ry
     smearing contrib. (-TS)   =      -0.00344267 Ry
     internal energy E=F+TS    =  -11428.48020518 Ry

     The total energy is F=E-TS. E is the sum of the following terms:
     one-electron contribution =  -33901.06092776 Ry
     hartree contribution      =   17367.52516871 Ry
     xc contribution           =   -2788.13458976 Ry
     ewald contribution        =    7893.19014364 Ry

     convergence has been achieved in  11 iterations

     Forces acting on atoms (cartesian axes, Ry/au):

     atom    1 type  1   force =     0.00004780   -0.00002465   -0.00649880
     atom    2 type  1   force =    -0.00020467    0.00012392   -0.01300698
     atom    3 type  1   force =     0.00028209   -0.00016522    0.00795014
     atom    4 type  1   force =    -0.00041092    0.00023388   -0.00617537
     atom    5 type  1   force =     0.00041309   -0.00023443    0.00616760
     atom    6 type  1   force =    -0.00027729    0.00016263   -0.00793715
     atom    7 type  1   force =     0.00022497   -0.00012365    0.01299159
     atom    8 type  1   force =    -0.00003400    0.00002281    0.00649898
     atom    9 type  1   force =     0.00004727   -0.00003064   -0.00649259
     atom   10 type  1   force =    -0.00020512    0.00011269   -0.01300592
     atom   11 type  1   force =     0.00028182   -0.00016054    0.00794238
     atom   12 type  1   force =    -0.00041045    0.00024053   -0.00618572
     atom   13 type  1   force =     0.00041242   -0.00024224    0.00617767
     atom   14 type  1   force =    -0.00027717    0.00015753   -0.00792972
     atom   15 type  1   force =     0.00022428   -0.00013575    0.01299361
     atom   16 type  1   force =    -0.00003324    0.00001605    0.00650450
     atom   17 type  1   force =     0.00002996   -0.00001478   -0.00649512
     atom   18 type  1   force =    -0.00021848    0.00013256   -0.01301018
     atom   19 type  1   force =     0.00027825   -0.00016234    0.00795607
     atom   20 type  1   force =    -0.00041026    0.00023471   -0.00617628
     atom   21 type  1   force =     0.00039396   -0.00022447    0.00616430
     atom   22 type  1   force =    -0.00028239    0.00016601   -0.00792255
     atom   23 type  1   force =     0.00020139   -0.00011039    0.01299421
     atom   24 type  1   force =    -0.00004596    0.00003055    0.00651667
     atom   25 type  1   force =     0.00003082   -0.00002059   -0.00648887
     atom   26 type  1   force =    -0.00021917    0.00012029   -0.01300821
     atom   27 type  1   force =     0.00027781   -0.00015877    0.00794879
     atom   28 type  1   force =    -0.00041135    0.00023995   -0.00618309
     atom   29 type  1   force =     0.00039511   -0.00023103    0.00616963
     atom   30 type  1   force =    -0.00028291    0.00016055   -0.00791382
     atom   31 type  1   force =     0.00020095   -0.00012210    0.01299469
[...]
     Davidson diagonalization with overlap
     ethr =  4.93E-09,  avg # of iterations =  2.0

     total cpu time spent up to now is      552.3 secs

     total energy              =  -11428.54606175 Ry
     estimated scf accuracy    <       0.00086299 Ry

     iteration #  3     ecut=    60.00 Ry     beta= 0.40
     Davidson diagonalization with overlap
     ethr =  4.93E-09,  avg # of iterations =  2.0

     total cpu time spent up to now is      555.1 secs

     total energy              =  -11428.54611772 Ry
     estimated scf accuracy    <       0.00000539 Ry

     iteration #  4     ecut=    60.00 Ry     beta= 0.40
     Davidson diagonalization with overlap
     ethr =  6.02E-10,  avg # of iterations =  2.0

     total cpu time spent up to now is      557.8 secs

     total energy              =  -11428.54611857 Ry
     estimated scf accuracy    <       0.00000209 Ry

     iteration #  5     ecut=    60.00 Ry     beta= 0.40
     Davidson diagonalization with overlap
     ethr =  2.33E-10,  avg # of iterations =  2.0

     total cpu time spent up to now is      560.4 secs

     total energy              =  -11428.54611866 Ry
     estimated scf accuracy    <       0.00000172 Ry

     iteration #  6     ecut=    60.00 Ry     beta= 0.40
     Davidson diagonalization with overlap
     ethr =  1.93E-10,  avg # of iterations =  2.0

     total cpu time spent up to now is      563.1 secs

     total energy              =  -11428.54611867 Ry
     estimated scf accuracy    <       0.00000433 Ry

     iteration #  7     ecut=    60.00 Ry     beta= 0.40
     Davidson diagonalization with overlap
     ethr =  1.93E-10,  avg # of iterations =  2.0

     total cpu time spent up to now is      565.7 secs

     total energy              =  -11428.54611890 Ry
     estimated scf accuracy    <       0.00000049 Ry

     iteration #  8     ecut=    60.00 Ry     beta= 0.40
     Davidson diagonalization with overlap
     ethr =  5.51E-11,  avg # of iterations =  2.0

     total cpu time spent up to now is      568.4 secs

     total energy              =  -11428.54611894 Ry
     estimated scf accuracy    <       0.00000011 Ry

     iteration #  9     ecut=    60.00 Ry     beta= 0.40
     Davidson diagonalization with overlap
     ethr =  1.27E-11,  avg # of iterations =  2.0

     total cpu time spent up to now is      571.0 secs

     End of self-consistent calculation

          k = 0.0000 0.0000 0.0000 ( 65858 PWs)   bands (ev):

   -21.4003 -21.4003 -21.3999 -21.3992 -21.3991 -21.3991 -21.3985 -21.3983
   -21.3982 -21.3976 -21.3976 -21.3966 -21.3950 -21.3950 -21.3938 -21.3938
   -21.3692 -21.3692 -21.3688 -21.3687 -21.3678 -21.3678 -21.3668 -21.3668
   -21.3663 -21.3663 -21.3658 -21.3657 -21.3652 -21.3651 -21.3650 -21.3647
   -21.3260 -21.3259 -21.3256 -21.3251 -21.3245 -21.3245 -21.3240 -21.3240
   -21.3240 -21.3236 -21.3236 -21.3231 -21.3226 -21.3226 -21.3222 -21.3222
   -21.2567 -21.2567 -21.2528 -21.2528 -21.2509 -21.2509 -21.2469 -21.2449
   -21.2403 -21.2380 -21.2379 -21.2342 -21.2318 -21.2316 -21.2314 -21.2296
   -21.2295 -21.2291 -21.2291 -21.2290 -21.2283 -21.2283 -21.2281 -21.2281
   -21.2281 -21.2281 -21.2278 -21.2278 -21.2273 -21.2273 -21.2251 -21.2251
   -21.2205 -21.2163 -21.2163 -21.2137 -21.2137 -21.2085 -21.2085 -21.2085
   -21.2085 -21.2084 -21.2074 -21.2074 -21.2071 -21.2071 -21.2071 -21.2071
   -21.2068 -21.2068 -21.2063 -21.2063 -21.2062 -21.2059 -21.2046 -21.2044
   -21.1866 -21.1858 -21.1749 -21.1749 -21.1690 -21.1690 -21.1621 -21.1590
   -21.1548 -21.1548 -21.1503 -21.1503 -21.1351 -21.1351 -21.1347 -21.1347
   -21.1280 -21.1280 -21.1179 -21.1158 -21.1158 -21.1096 -21.1096 -21.1082
   -21.1063 -21.1005 -21.1005 -21.0957 -21.0957 -21.0877 -21.0876 -21.0793
   -21.0782 -21.0776 -21.0776 -21.0735 -21.0698 -21.0698 -21.0697 -21.0697
   -21.0684 -21.0684 -21.0612 -21.0612 -21.0610 -21.0600 -21.0600 -21.0597
   -21.0597 -21.0581 -21.0581 -21.0569 -21.0560 -21.0560 -21.0541 -21.0541
   -21.0498 -21.0435 -21.0435 -21.0409 -21.0369 -21.0331 -21.0331 -21.0329
   -21.0296 -21.0268 -21.0260 -21.0260 -21.0211 -21.0128 -21.0128 -21.0106
   -21.0105 -21.0105 -21.0101 -21.0101 -21.0069 -21.0066 -21.0066 -21.0057
   -21.0057 -21.0050 -21.0016 -20.9979 -20.9978 -20.9972 -20.9972 -20.9945
   -20.9941 -20.9941 -20.9916 -20.9916 -20.9898 -20.9898 -20.9882 -20.9882
   -20.9879 -20.9879 -20.9840 -20.9836 -20.9836 -20.9747 -20.9715 -20.9707
   -20.9706 -20.9698 -20.9698 -20.9694 -20.9694 -20.9664 -20.9664 -20.9604
   -20.9604 -20.9582 -20.9545 -20.9542 -20.9542 -20.9505 -20.9477 -20.9456
   -20.9456 -20.9440 -20.9425 -20.9421 -20.9421 -20.9411 -20.9411 -20.9374
   -20.9373 -20.9372 -20.9372 -20.9356 -20.9352 -20.9352 -20.9343 -20.9343
   -20.8403 -20.8403 -20.8389 -20.8389 -20.8356 -20.8356 -20.8355 -20.8355
   -20.8345 -20.8345 -20.8335 -20.8335 -20.8286 -20.8286 -20.8284 -20.8284
   -20.8247 -20.8240 -20.8230 -20.8228 -20.8224 -20.8224 -20.8218 -20.8218
   -20.8090 -20.8074 -20.8007 -20.8000 -20.7997 -20.7997 -20.7996 -20.7996
   -20.7976 -20.7976 -20.7974 -20.7974 -20.7949 -20.7949 -20.7917 -20.7913
   -20.7898 -20.7898 -20.7896 -20.7896 -20.7845 -20.7845 -20.7842 -20.7838
   -20.7838 -20.7833 -20.7739 -20.7739 -20.7720 -20.7720 -20.7718 -20.7718
   -20.7717 -20.7717 -20.7709 -20.7709 -20.7707 -20.7707 -20.7659 -20.7645
   -20.7523 -20.7518 -20.7511 -20.7511 -20.7509 -20.7509 -20.7502 -20.7501
   -20.7498 -20.7486 -20.7486 -20.7482 -20.7482 -20.7479 -20.7475 -20.7475
    -8.5132  -7.9070  -7.8674  -7.8674  -7.2734  -7.2726  -7.2725  -6.7191
    -6.7191  -6.6376  -6.6375  -6.5838  -6.5838  -6.5747  -6.2048  -6.2048
    -6.1607  -6.1607  -6.1430  -5.6460  -5.6460  -5.6370  -5.6196  -5.6196
    -4.9850  -4.9727  -4.9727  -4.9518  -4.8712  -4.8712  -4.7012  -4.6721
    -4.6716  -4.3416  -4.3410  -4.1329  -4.1216  -4.1216  -4.0682  -4.0682
    -3.5993  -3.5904  -3.5904  -3.4076  -3.4075  -3.0012  -2.9923  -2.9923
    -2.9107  -2.8942  -2.8942  -2.8319  -2.8316  -2.7601  -2.7601  -2.6931
    -2.5461  -2.5461  -1.5618  -1.5616  -0.8930  -0.7102  -0.7101   0.1468
     0.1468   0.1612   0.1612   0.1745   0.1746   0.2319   0.2487   0.2487
     0.3156   0.3156   0.4736   0.4842   0.4842   0.6182   0.6182   1.0177
     1.0408   1.0409   1.1710   1.1710   1.1829   1.2420   1.2420   1.7380
     1.7399   1.7399   1.7428   1.7428   1.7646   1.7995   1.7995   1.9479
     1.9482   2.0614   2.1162   2.1162   2.1574   2.1574   2.2393   2.2393
     2.2581   2.3294   2.3625   2.3625   2.3715   2.3717   2.4061   2.4061
     2.5521   2.5523   2.6570   2.6888   2.6888   2.7364   2.7729   2.8276
     2.8576   2.8577   2.9955   2.9955   3.0429   3.0429   3.2242   3.2874
     3.5974   3.5982   3.6623   3.7169   3.9047   3.9047   3.9531   3.9540
     4.0977   4.0977   4.2922   4.3737   4.7440   4.7563   4.7652   4.7652
     4.9544   4.9544   4.9757   4.9879   4.9880   5.2186   5.2186   5.2506
     5.2507   5.2692   5.2827   5.2827   5.3100   5.3793   5.4283   5.4378
     5.4378   5.5163   5.5165   5.7010   5.7017   5.7351   5.7352   5.7883
     5.7890   5.8527   5.9161   5.9161   5.9507   5.9763   5.9763   6.0504
     6.1805   6.2598   6.3328   6.3330   6.3528   6.3528   6.8044   6.9969
     6.9973   7.0228   7.0684   7.1509   7.1700   7.1701   7.2430   7.2430
     7.2788   7.2788   7.3022   7.4741   7.4743   7.7095   7.7097   7.7113
     7.7113   7.7204   7.7419   7.7591   7.8285   7.8285   7.8555   7.8555
     8.0637   8.0637   8.0788   8.1642   8.1642   8.3497   8.3498   8.3537
     8.3632   8.3632

     the Fermi energy is     3.4287 ev

!    total energy              =  -11428.54611896 Ry
     estimated scf accuracy    <          9.1E-09 Ry
     smearing contrib. (-TS)   =      -0.00528163 Ry
     internal energy E=F+TS    =  -11428.54083733 Ry

     The total energy is F=E-TS. E is the sum of the following terms:
     one-electron contribution =  -30942.24820353 Ry
     hartree contribution      =   15890.61841717 Ry
     xc contribution           =   -2787.06272585 Ry
     ewald contribution        =    6410.15167488 Ry

     convergence has been achieved in   9 iterations

     Forces acting on atoms (cartesian axes, Ry/au):

     atom    1 type  1   force =    -0.00007632    0.00004647    0.00066567
     atom    2 type  1   force =     0.00019544   -0.00009078   -0.00048250
     atom    3 type  1   force =    -0.00011315    0.00006567    0.00012442
     atom    4 type  1   force =    -0.00032663    0.00018763   -0.00031303
     atom    5 type  1   force =     0.00032058   -0.00018444    0.00030633
     atom    6 type  1   force =     0.00010667   -0.00006212   -0.00011721
     atom    7 type  1   force =    -0.00008456    0.00007557    0.00048967
     atom    8 type  1   force =     0.00006860   -0.00003682   -0.00066995
     atom    9 type  1   force =    -0.00007810    0.00004265    0.00066686
     atom   10 type  1   force =     0.00018816   -0.00013073   -0.00048556
     atom   11 type  1   force =    -0.00011411    0.00006560    0.00012857
     atom   12 type  1   force =    -0.00032688    0.00018969   -0.00031161
     atom   13 type  1   force =     0.00032112   -0.00018602    0.00030546
     atom   14 type  1   force =     0.00010769   -0.00006170   -0.00012094
     atom   15 type  1   force =    -0.00009337    0.00002709    0.00048689
     atom   16 type  1   force =     0.00006734   -0.00004173   -0.00067152
     atom   17 type  1   force =    -0.00007324    0.00004453    0.00066889
     atom   18 type  1   force =     0.00009623   -0.00003127   -0.00048761
     atom   19 type  1   force =    -0.00010545    0.00006060    0.00012728
     atom   20 type  1   force =    -0.00030785    0.00017683   -0.00031192
     atom   21 type  1   force =     0.00032178   -0.00018471    0.00030610
     atom   22 type  1   force =     0.00012007   -0.00006867   -0.00012441
     atom   23 type  1   force =    -0.00019959    0.00013899    0.00049112
     atom   24 type  1   force =     0.00006717   -0.00003628   -0.00067604
     atom   25 type  1   force =    -0.00007409    0.00004049    0.00066773
     atom   26 type  1   force =     0.00008950   -0.00007600   -0.00049006
     atom   27 type  1   force =    -0.00010565    0.00006129    0.00013052
     atom   28 type  1   force =    -0.00030808    0.00017883   -0.00030941
     atom   29 type  1   force =     0.00032227   -0.00018715    0.00030135
     atom   30 type  1   force =     0.00011977   -0.00006966   -0.00012912
     atom   31 type  1   force =    -0.00020783    0.00009632    0.00048801
     atom   32 type  1   force =     0.00006497   -0.00004006   -0.00067459
     atom   33 type  1   force =    -0.00006228    0.00003861    0.00067620
     atom   34 type  1   force =     0.00021558   -0.00010176   -0.00047810
     atom   35 type  1   force =    -0.00010849    0.00006229    0.00012763
     atom   36 type  1   force =    -0.00030868    0.00017635   -0.00030717
     atom   37 type  1   force =     0.00031330   -0.00017909    0.00030416
     atom   38 type  1   force =     0.00011405   -0.00006554   -0.00012266
     atom   39 type  1   force =    -0.00009712    0.00006695    0.00049234
     atom   40 type  1   force =     0.00007983   -0.00004616   -0.00067668
     atom   41 type  1   force =    -0.00006422    0.00003446    0.00067406
     atom   42 type  1   force =     0.00020705   -0.00014226   -0.00048092
     atom   43 type  1   force =    -0.00010841    0.00006292    0.00013137
     atom   44 type  1   force =    -0.00030787    0.00017952   -0.00030603
     atom   45 type  1   force =     0.00031272   -0.00018229    0.00030275
     atom   46 type  1   force =     0.00011390   -0.00006614   -0.00012681
     atom   47 type  1   force =    -0.00009192    0.00004229    0.00048988
     atom   48 type  1   force =     0.00008137   -0.00004689   -0.00067753
     atom   49 type  1   force =    -0.00007274    0.00004254    0.00067409
     atom   50 type  1   force =     0.00008824   -0.00003952   -0.00048655
     atom   51 type  1   force =    -0.00011467    0.00006546    0.00012691
     atom   52 type  1   force =    -0.00032345    0.00018543   -0.00031166
     atom   53 type  1   force =     0.00031086   -0.00017848    0.00031165
     atom   54 type  1   force =     0.00010205   -0.00005821   -0.00012043
     atom   55 type  1   force =    -0.00019715    0.00013531    0.00048154
     atom   56 type  1   force =     0.00007172   -0.00003910   -0.00067422
     atom   57 type  1   force =    -0.00007155    0.00004082    0.00067296
     atom   58 type  1   force =     0.00009265   -0.00006510   -0.00048904
     atom   59 type  1   force =    -0.00011395    0.00006660    0.00013131
     atom   60 type  1   force =    -0.00032373    0.00018820   -0.00030656
     atom   61 type  1   force =     0.00031206   -0.00018114    0.00030934
     atom   62 type  1   force =     0.00010175   -0.00005941   -0.00012368
     atom   63 type  1   force =    -0.00020410    0.00009633    0.00047881
     atom   64 type  1   force =     0.00007071   -0.00004310   -0.00067635

     Total force =     0.003979     Total SCF correction =     0.000526
     SCF correction compared to forces is large: reduce conv_thr to get better values
     Energy error            =      5.3E-05 Ry
     Gradient error          =      6.8E-04 Ry/Bohr

     bfgs converged in  15 scf cycles and  14 bfgs steps
     (criteria: energy <  1.0E-04 Ry, force <  1.0E-03 Ry/Bohr)

     End of BFGS Geometry Optimization

     Final energy             =  -11428.5461189564 Ry

     File ./out/ge.bfgs deleted, as requested
Begin final coordinates

ATOMIC_POSITIONS (angstrom)
Ge            0.9952063923        0.5838790074        7.2502216204
Ge            0.9991692563        0.5817738466        4.7481666979
Ge            3.0084356764        1.7381368487       10.6763122196
Ge            3.0077879061        1.7385232788        8.2175454653
Ge            5.0177092902        2.8949563758       14.0688899461
Ge            5.0170780278        2.8953313800       11.6101086867
Ge            1.0079287454        0.5768479446       17.5381358209
Ge            1.0113197160        0.5745650618       15.0360687964
Ge            3.0015422895        4.0588467703        7.2503173362
Ge            3.0054716364        4.0563935990        4.7482651804
Ge            5.0147950120        5.2133985831       10.6761381744
Ge            5.0141501458        5.2137575747        8.2173508216
Ge            7.0240747775        6.3699680398       14.0690861352
Ge            7.0234475448        6.3703170917       11.6102825675
Ge            3.0141548813        4.0512514180       17.5382110175
Ge            3.0176969718        4.0495328452       15.0361435583
Ge            5.0078099353        0.5839384786        7.2503326639
Ge            5.0115522914        0.5820591483        4.7482631188
Ge            7.0213024077        1.7380602704       10.6761530454
Ge            7.0205863229        1.7384811249        8.2173959138
Ge            9.0303459448        2.8950105763       14.0690564726
Ge            9.0296568664        2.8954152978       11.6102765425
Ge            5.0198902121        0.5771933523       17.5381875563
Ge            5.0239534974        0.5746335373       15.0361357809
Ge            7.0141863668        4.0589081286        7.2504065146
Ge            7.0178171303        4.0565335580        4.7483372372
Ge            9.0276560310        5.2133172777       10.6760075565
Ge            9.0269387516        5.2137240311        8.2172259053
Ge           11.0367101249        6.3700190808       14.0691979699
Ge           11.0360210488        6.3704073421       11.6104128989
Ge            7.0261943066        4.0517479641       17.5382873233
Ge            7.0302931937        4.0495959415       15.0362317060
Ge            9.0206400362        0.5838916902        7.2502341732
Ge            9.0249014482        0.5816331180        4.7481616097
Ge           11.0338593529        1.7381575619       10.6762905367
Ge           11.0331679809        1.7385658858        8.2175581037
Ge           13.0431812335        2.8949466363       14.0688549151
Ge           13.0424525646        2.8953755571       11.6100833614
Ge            9.0329347312        0.5768078706       17.5380668210
Ge            9.0367631787        0.5745546879       15.0360024378
Ge           11.0269827090        4.0588558716        7.2503272186
Ge           11.0311901431        4.0562233749        4.7482517981
Ge           13.0402140905        5.2134180671       10.6761226222
Ge           13.0395280014        5.2138041024        8.2173696895
Ge           15.0495462349        6.3699567208       14.0690454484
Ge           15.0488250230        6.3703654218       11.6102556922
Ge           11.0394204326        4.0516612157       17.5381454747
Ge           11.0431553065        4.0495487159       15.0360822988
Ge           13.0331671729        0.5839785354        7.2503146716
Ge           13.0366987767        0.5820017955        4.7482570429
Ge           15.0466686996        1.7381085702       10.6760985362
Ge           15.0460176748        1.7384926734        8.2173158927
Ge           17.0557992064        2.8950102007       14.0690292133
Ge           17.0550882596        2.8954256961       11.6102237413
Ge           13.0452385796        0.5772161875       17.5381764777
Ge           13.0493773171        0.5746478266       15.0361076464
Ge           15.0395572848        4.0589739955        7.2503984257
Ge           15.0431680657        4.0568328128        4.7483383395
Ge           17.0530312450        5.2133673236       10.6759665925
Ge           17.0523798040        5.2137353989        8.2171768510
Ge           19.0621680871        6.3700194119       14.0692081481
Ge           19.0614655770        6.3704178758       11.6103746760
Ge           15.0515620825        4.0518350065       17.5382597447
Ge           15.0557266512        4.0496101724       15.0361939953
End final coordinates



     Writing output data file ./out/ge.save/
 
     init_run     :      0.97s CPU      1.40s WALL (       1 calls)
     electrons    :    429.12s CPU    553.97s WALL (      15 calls)
     update_pot   :      2.10s CPU      3.04s WALL (      14 calls)
     forces       :      8.31s CPU     12.20s WALL (      15 calls)

     Called by init_run:
     wfcinit      :      0.72s CPU      1.03s WALL (       1 calls)
     potinit      :      0.06s CPU      0.11s WALL (       1 calls)
     hinit0       :      0.06s CPU      0.10s WALL (       1 calls)

     Called by electrons:
     c_bands      :    393.93s CPU    516.06s WALL (     172 calls)
     sum_band     :     30.24s CPU     31.19s WALL (     172 calls)
     v_of_rho     :      4.05s CPU      5.22s WALL (     183 calls)
     mix_rho      :      0.91s CPU      0.97s WALL (     172 calls)

     Called by c_bands:
     init_us_2    :      4.69s CPU      4.77s WALL (     345 calls)
     regterg      :    375.75s CPU    497.48s WALL (     172 calls)

     Called by *egterg:
     rdiaghg      :     25.99s CPU     56.43s WALL (     769 calls)
     h_psi        :    183.04s CPU    190.54s WALL (     788 calls)
     g_psi        :      1.19s CPU      1.23s WALL (     615 calls)

     Called by h_psi:
     h_psi:calbec :     35.55s CPU     38.72s WALL (     788 calls)
     vloc_psi     :    118.52s CPU    122.48s WALL (     788 calls)
     add_vuspsi   :     26.03s CPU     26.36s WALL (     788 calls)

     General routines
     calbec       :     40.53s CPU     47.01s WALL (     848 calls)
     fft          :      3.25s CPU      5.41s WALL (    1602 calls)
     ffts         :      0.23s CPU      0.23s WALL (     172 calls)
     fftw         :    130.74s CPU    135.10s WALL (  265440 calls)
 
     Parallel routines
 
     PWSCF        :   7m21.78s CPU   9m33.04s WALL

 
   This run was terminated on:  10:54:19  28Apr2025            

=------------------------------------------------------------------------------=
   JOB DONE.
=------------------------------------------------------------------------------=
