
     Program PWSCF v.6.8 starts on 28Apr2025 at 22:51: 5 

     This program is part of the open-source Quantum ESPRESSO suite
     for quantum simulation of materials; please cite
         "P. Giannozzi et al., J. Phys.:Condens. Matter 21 395502 (2009);
         "P. Giannozzi et al., J. Phys.:Condens. Matter 29 465901 (2017);
         "P. Giannozzi et al., J. Chem. Phys. 152 154105 (2020);
          URL http://www.quantum-espresso.org", 
     in publications or presentations arising from this work. More details at
     http://www.quantum-espresso.org/quote

     Parallel version (MPI & OpenMP), running on      56 processor cores
     Number of MPI processes:                56
     Threads/MPI process:                     1

     MPI processes distributed on     1 nodes
     R & G space division:  proc/nbgrp/npool/nimage =      56
     186350 MiB available memory on the printing compute node when the environment starts
 
     Reading input from surface_relax.in
Warning: card &CELL ignored
Warning: card / ignored
Warning: card &FCP ignored
Warning: card / ignored
Warning: card &RISM ignored
Warning: card / ignored

     Current dimensions of program PWSCF are:
     Max number of different atomic species (ntypx) = 10
     Max number of k-points (npk) =  40000
     Max angular momentum in pseudopotentials (lmaxx) =  4

     File ./out/ge.update deleted, as requested

     File ./out/ge.bfgs deleted, as requested

     Subspace diagonalization in iterative solution of the eigenvalue problem:
     one sub-group per band group will be used
     scalapack distributed-memory algorithm (size of sub-group:  7*  7 procs)

 
     Parallelization info
     --------------------
     sticks:   dense  smooth     PW     G-vecs:    dense   smooth      PW
     Min          81      81     21                10113    10113    1403
     Max          82      82     22                10133    10133    1422
     Sum        4537    4537   1217               566795   566795   79073
 
     Using Slab Decomposition
 


     bravais-lattice index     =            0
     lattice parameter (alat)  =      15.4202  a.u.
     unit-cell volume          =    9030.6760 (a.u.)^3
     number of atoms/cell      =           32
     number of atomic types    =            1
     number of electrons       =       448.00
     number of Kohn-Sham states=          269
     kinetic-energy cutoff     =      60.0000  Ry
     charge density cutoff     =     240.0000  Ry
     scf convergence threshold =      1.0E-06
     mixing beta               =       0.4000
     number of iterations used =            8  plain     mixing
     energy convergence thresh.=      1.0E-04
     force convergence thresh. =      1.0E-03
     Exchange-correlation= PBE
                           (   1   4   3   4   0   0   0)
     nstep                     =          100


     celldm(1)=  15.420188  celldm(2)=   0.000000  celldm(3)=   0.000000
     celldm(4)=   0.000000  celldm(5)=   0.000000  celldm(6)=   0.000000

     crystal axes: (cart. coord. in units of alat)
               a(1) = (   1.000000   0.000000   0.000000 )  
               a(2) = (   0.000000   1.000000   0.000000 )  
               a(3) = (   0.000000   0.000000   2.462925 )  

     reciprocal axes: (cart. coord. in units 2 pi/alat)
               b(1) = (  1.000000  0.000000  0.000000 )  
               b(2) = (  0.000000  1.000000  0.000000 )  
               b(3) = (  0.000000  0.000000  0.406021 )  


     PseudoPot. # 1 for Ge read from file:
     ./Ge.upf
     MD5 check sum: 087fa14d6c89b52166990835c3b338da
     Pseudo is Norm-conserving + core correction, Zval = 14.0
     Generated using ONCVPSP code by D. R. Hamann
     Using radial grid of 1560 points,  6 beta functions with: 
                l(1) =   0
                l(2) =   0
                l(3) =   1
                l(4) =   1
                l(5) =   2
                l(6) =   2

     atomic species   valence    mass     pseudopotential
        Ge            14.00    72.63000     Ge( 1.00)

     No symmetry found



   Cartesian axes

     site n.     atom                  positions (alat units)
         1           Ge  tau(   1) = (   0.0006579   0.0002316   0.6146089  )
         2           Ge  tau(   2) = (   0.2492290   0.0015915   0.7881708  )
         3           Ge  tau(   3) = (   0.2509735   0.2479230   0.9673861  )
         4           Ge  tau(   4) = (   0.0022799   0.2516099   1.1428956  )
         5           Ge  tau(   5) = (   0.0017328   0.0009687   1.3180080  )
         6           Ge  tau(   6) = (   0.2488859   0.0008379   1.4963186  )
         7           Ge  tau(   7) = (   0.2504302   0.2476046   1.6752129  )
         8           Ge  tau(   8) = (   0.0000106   0.2507294   1.8510288  )
         9           Ge  tau(   9) = (   0.0013474   0.4980750   0.6133805  )
        10           Ge  tau(  10) = (   0.2491558   0.4992696   0.7885974  )
        11           Ge  tau(  11) = (   0.2502217   0.7511647   0.9640707  )
        12           Ge  tau(  12) = (  -0.0000107   0.7519111   1.1407438  )
        13           Ge  tau(  13) = (   0.0020278   0.4980423   1.3195100  )
        14           Ge  tau(  14) = (   0.2480160   0.4996182   1.4970435  )
        15           Ge  tau(  15) = (   0.2495675   0.7483160   1.6746454  )
        16           Ge  tau(  16) = (  -0.0008449   0.7509935   1.8492273  )
        17           Ge  tau(  17) = (   0.5018313  -0.0006294   0.6146303  )
        18           Ge  tau(  18) = (   0.7520478   0.0011843   0.7890738  )
        19           Ge  tau(  19) = (   0.7484109   0.2482381   0.9647293  )
        20           Ge  tau(  20) = (   0.4981430   0.2495704   1.1446072  )
        21           Ge  tau(  21) = (   0.4979271  -0.0024013   1.3197709  )
        22           Ge  tau(  22) = (   0.7481730   0.0007017   1.4981056  )
        23           Ge  tau(  23) = (   0.7521418   0.2488297   1.6742089  )
        24           Ge  tau(  24) = (   0.5021233   0.2497893   1.8484767  )
        25           Ge  tau(  25) = (   0.5013448   0.4991119   0.6103237  )
        26           Ge  tau(  26) = (   0.7524456   0.5013806   0.7903216  )
        27           Ge  tau(  27) = (   0.7494129   0.7500178   0.9664466  )
        28           Ge  tau(  28) = (   0.5008607   0.7522046   1.1416660  )
        29           Ge  tau(  29) = (   0.5000856   0.5003606   1.3196378  )
        30           Ge  tau(  30) = (   0.7524038   0.4996151   1.4990026  )
        31           Ge  tau(  31) = (   0.7497966   0.7489798   1.6711807  )
        32           Ge  tau(  32) = (   0.4998451   0.7486501   1.8506399  )

     number of k points=     4  Gaussian smearing, width (Ry)=  0.0100
                       cart. coord. in units 2pi/alat
        k(    1) = (   0.0000000   0.0000000   0.0000000), wk =   0.5000000
        k(    2) = (   0.0000000  -0.5000000   0.0000000), wk =   0.5000000
        k(    3) = (  -0.5000000  -0.5000000   0.0000000), wk =   0.5000000
        k(    4) = (  -0.5000000   0.0000000   0.0000000), wk =   0.5000000

     Dense  grid:   566795 G-vectors     FFT dimensions: (  80,  80, 192)

     Estimated max dynamical RAM per process >      67.69 MB

     Estimated total dynamical RAM >       3.70 GB

     Initial potential from superposition of free atoms

     starting charge  447.97367, renormalised to  448.00000

     negative rho (up, down):  2.455E-05 0.000E+00
     Starting wfcs are  288 randomized atomic wfcs

     total cpu time spent up to now is        2.5 secs

     Self-consistent Calculation

     iteration #  1     ecut=    60.00 Ry     beta= 0.40
     Davidson diagonalization with overlap
     ethr =  1.00E-02,  avg # of iterations =  3.0

     Threshold (ethr) on eigenvalues was too large:
     Diagonalizing with lowered threshold

     Davidson diagonalization with overlap
     ethr =  2.27E-04,  avg # of iterations =  8.2

     negative rho (up, down):  7.447E-06 0.000E+00

     total cpu time spent up to now is       19.6 secs

     total energy              =   -5714.30165499 Ry
     estimated scf accuracy    <       1.12194852 Ry

     iteration #  2     ecut=    60.00 Ry     beta= 0.40
     Davidson diagonalization with overlap
     ethr =  2.50E-04,  avg # of iterations = 10.2

     negative rho (up, down):  4.148E-06 0.000E+00

     total cpu time spent up to now is       29.1 secs

     total energy              =   -5713.59193757 Ry
     estimated scf accuracy    <      11.31806411 Ry

     iteration #  3     ecut=    60.00 Ry     beta= 0.40
     Davidson diagonalization with overlap
     ethr =  2.50E-04,  avg # of iterations =  9.2

     negative rho (up, down):  6.765E-08 0.000E+00

     total cpu time spent up to now is       37.8 secs

     total energy              =   -5714.54943903 Ry
     estimated scf accuracy    <       0.44218505 Ry

     iteration #  4     ecut=    60.00 Ry     beta= 0.40
     Davidson diagonalization with overlap
     ethr =  9.87E-05,  avg # of iterations =  2.0

     total cpu time spent up to now is       43.6 secs

     total energy              =   -5714.53430598 Ry
     estimated scf accuracy    <       0.22655484 Ry

     iteration #  5     ecut=    60.00 Ry     beta= 0.40
     Davidson diagonalization with overlap
     ethr =  5.06E-05,  avg # of iterations =  9.8

     total cpu time spent up to now is       51.7 secs

     total energy              =   -5714.51732081 Ry
     estimated scf accuracy    <       1.60182746 Ry

     iteration #  6     ecut=    60.00 Ry     beta= 0.40
     Davidson diagonalization with overlap
     ethr =  5.06E-05,  avg # of iterations =  5.0

     total cpu time spent up to now is       58.3 secs

     total energy              =   -5714.56834309 Ry
     estimated scf accuracy    <       0.06507291 Ry

     iteration #  7     ecut=    60.00 Ry     beta= 0.40
     Davidson diagonalization with overlap
     ethr =  1.45E-05,  avg # of iterations =  6.8

     total cpu time spent up to now is       65.4 secs

     total energy              =   -5714.57411218 Ry
     estimated scf accuracy    <       0.00798415 Ry

     iteration #  8     ecut=    60.00 Ry     beta= 0.40
     Davidson diagonalization with overlap
     c_bands:  1 eigenvalues not converged
     ethr =  1.78E-06,  avg # of iterations = 12.8

     total cpu time spent up to now is       74.4 secs

     total energy              =   -5714.57445732 Ry
     estimated scf accuracy    <       0.00052758 Ry

     iteration #  9     ecut=    60.00 Ry     beta= 0.40
     Davidson diagonalization with overlap
     ethr =  1.18E-07,  avg # of iterations =  2.2

     total cpu time spent up to now is       80.5 secs

     total energy              =   -5714.57448228 Ry
     estimated scf accuracy    <       0.00046202 Ry

     iteration # 10     ecut=    60.00 Ry     beta= 0.40
     Davidson diagonalization with overlap
     ethr =  1.03E-07,  avg # of iterations =  1.8

     total cpu time spent up to now is       86.1 secs

     total energy              =   -5714.57452538 Ry
     estimated scf accuracy    <       0.00007325 Ry

     iteration # 11     ecut=    60.00 Ry     beta= 0.40
     Davidson diagonalization with overlap
     ethr =  1.63E-08,  avg # of iterations =  2.0

     total cpu time spent up to now is       91.8 secs

     total energy              =   -5714.57453323 Ry
     estimated scf accuracy    <       0.00001600 Ry

     iteration # 12     ecut=    60.00 Ry     beta= 0.40
     Davidson diagonalization with overlap
     ethr =  3.57E-09,  avg # of iterations =  2.0

     total cpu time spent up to now is       97.6 secs

     total energy              =   -5714.57453539 Ry
     estimated scf accuracy    <       0.00000214 Ry

     iteration # 13     ecut=    60.00 Ry     beta= 0.40
     Davidson diagonalization with overlap
     ethr =  4.77E-10,  avg # of iterations =  2.0

     total cpu time spent up to now is      103.6 secs

     total energy              =   -5714.57453580 Ry
     estimated scf accuracy    <       0.00000145 Ry

     iteration # 14     ecut=    60.00 Ry     beta= 0.40
     Davidson diagonalization with overlap
     ethr =  3.23E-10,  avg # of iterations =  2.0

     total cpu time spent up to now is      109.4 secs

     End of self-consistent calculation

          k = 0.0000 0.0000 0.0000 ( 70733 PWs)   bands (ev):

   -21.8673 -21.8643 -21.8605 -21.8561 -21.8526 -21.8498 -21.8454 -21.8353
   -21.8350 -21.8330 -21.8263 -21.8247 -21.8228 -21.8201 -21.8154 -21.8106
   -21.8103 -21.8098 -21.8070 -21.8015 -21.7929 -21.7896 -21.7876 -21.7839
   -21.7827 -21.7824 -21.7791 -21.7756 -21.7730 -21.7688 -21.7679 -21.7641
   -21.7587 -21.7502 -21.7469 -21.7461 -21.7441 -21.7431 -21.7426 -21.7396
   -21.7355 -21.7336 -21.7305 -21.7213 -21.7086 -21.7060 -21.7041 -21.7022
   -21.7013 -21.7012 -21.6981 -21.6931 -21.6897 -21.6873 -21.6812 -21.6792
   -21.6777 -21.6768 -21.6728 -21.6725 -21.6715 -21.6674 -21.6650 -21.6613
   -21.6602 -21.6559 -21.6551 -21.6536 -21.6472 -21.6463 -21.6443 -21.6435
   -21.6351 -21.6343 -21.6341 -21.6323 -21.6321 -21.6317 -21.6304 -21.6294
   -21.6285 -21.6238 -21.6223 -21.6212 -21.6170 -21.6162 -21.6154 -21.6152
   -21.6140 -21.6132 -21.6111 -21.6106 -21.6102 -21.6080 -21.6056 -21.6014
   -21.6000 -21.5984 -21.5870 -21.5856 -21.5831 -21.5800 -21.5782 -21.5763
   -21.5733 -21.5705 -21.5675 -21.5655 -21.5620 -21.5550 -21.5498 -21.5475
   -21.5468 -21.5442 -21.5423 -21.5386 -21.5309 -21.5283 -21.5262 -21.5167
   -21.4536 -21.4524 -21.4387 -21.4334 -21.4298 -21.4295 -21.4254 -21.4221
   -21.4211 -21.4172 -21.4140 -21.4079 -21.4068 -21.4058 -21.3999 -21.3980
   -21.3941 -21.3895 -21.3829 -21.3815 -21.3812 -21.3809 -21.3755 -21.3744
   -21.3721 -21.3691 -21.3668 -21.3633 -21.3610 -21.3589 -21.3575 -21.3556
   -21.3417 -21.3375 -21.3287 -21.3275 -21.3233 -21.3202 -21.3072 -21.3014
    -9.0317  -8.3801  -7.4552  -7.4262  -7.4055  -7.3828  -7.3478  -7.2706
    -7.0414  -7.0311  -6.1079  -5.6132  -5.5781  -5.5571  -5.5160  -5.3824
    -5.3682  -5.1923  -5.1316  -4.7331  -4.7310  -4.5210  -3.9555  -3.9368
    -3.8677  -3.7515  -3.4628  -2.7902  -2.7573  -2.6894  -0.7621  -0.2906
    -0.2585  -0.2523  -0.2221  -0.0055   0.0255   0.0538   0.0853   0.1707
     0.1871   0.4422   0.4665   1.0676   1.1429   1.1681   1.2344   1.4103
     1.6957   1.7114   1.7448   1.7696   1.8035   1.8241   1.8456   1.8900
     1.9075   1.9126   2.0015   2.0175   2.1641   2.3421   2.3516   2.3634
     2.7549   2.8449   2.8881   3.2615   3.7224   3.9538   4.0073   4.3265
     4.3502   4.4909   4.5648   4.5777   4.6177   4.6287   4.6496   4.6766
     4.9350   4.9502   4.9666   5.0260   5.0494   5.0599   5.2065   5.2569
     5.2966   5.3875   6.1995   6.2220   6.2765   6.7579   6.7913   7.0120
     7.0834   7.1494   7.1718   7.1826   7.1865   7.2220   7.2923   7.3616
     7.4614   7.6181   7.6566   7.6733   7.7626

          k = 0.0000-0.5000 0.0000 ( 70890 PWs)   bands (ev):

   -21.8675 -21.8667 -21.8604 -21.8589 -21.8540 -21.8510 -21.8467 -21.8438
   -21.8394 -21.8385 -21.8354 -21.8329 -21.8211 -21.8202 -21.8149 -21.8137
   -21.8055 -21.8042 -21.8002 -21.7976 -21.7966 -21.7961 -21.7941 -21.7930
   -21.7868 -21.7838 -21.7821 -21.7794 -21.7771 -21.7747 -21.7619 -21.7613
   -21.7569 -21.7566 -21.7468 -21.7443 -21.7420 -21.7413 -21.7387 -21.7353
   -21.7322 -21.7298 -21.7256 -21.7242 -21.7053 -21.7028 -21.7009 -21.6995
   -21.6977 -21.6960 -21.6937 -21.6924 -21.6891 -21.6880 -21.6875 -21.6860
   -21.6831 -21.6802 -21.6776 -21.6769 -21.6743 -21.6725 -21.6673 -21.6659
   -21.6602 -21.6579 -21.6556 -21.6545 -21.6491 -21.6479 -21.6449 -21.6443
   -21.6398 -21.6380 -21.6375 -21.6363 -21.6353 -21.6343 -21.6340 -21.6326
   -21.6293 -21.6291 -21.6286 -21.6244 -21.6188 -21.6168 -21.6164 -21.6155
   -21.6154 -21.6132 -21.6117 -21.6112 -21.6084 -21.6074 -21.6026 -21.6012
   -21.6002 -21.5988 -21.5936 -21.5926 -21.5854 -21.5829 -21.5801 -21.5762
   -21.5711 -21.5659 -21.5624 -21.5606 -21.5588 -21.5569 -21.5510 -21.5492
   -21.5466 -21.5448 -21.5429 -21.5392 -21.5317 -21.5290 -21.5267 -21.5175
   -21.4600 -21.4580 -21.4514 -21.4426 -21.4347 -21.4317 -21.4317 -21.4301
   -21.4146 -21.4120 -21.4107 -21.4035 -21.3989 -21.3983 -21.3981 -21.3964
   -21.3946 -21.3895 -21.3847 -21.3826 -21.3811 -21.3791 -21.3761 -21.3754
   -21.3736 -21.3707 -21.3682 -21.3681 -21.3631 -21.3606 -21.3589 -21.3581
   -21.3417 -21.3372 -21.3291 -21.3267 -21.3216 -21.3202 -21.3132 -21.3050
    -8.5888  -8.5570  -7.9865  -7.9570  -7.1456  -7.0950  -6.9457  -6.9050
    -6.8864  -6.8573  -6.7968  -6.7670  -6.2783  -6.2695  -5.0078  -4.9812
    -4.9503  -4.9214  -4.3194  -4.2961  -4.1608  -4.1367  -4.1242  -4.0849
    -3.9371  -3.9238  -3.1518  -3.1415  -2.0665  -2.0504  -1.1713  -1.1353
    -0.3466  -0.3375  -0.3161  -0.3044  -0.1670  -0.1639   0.1721   0.1843
     0.2096   0.2197   0.4805   0.5124   0.8096   0.8296   0.8443   0.8513
     0.9200   0.9237   1.3507   1.3849   1.9356   1.9376   1.9724   1.9754
     2.0191   2.0728   2.1208   2.1292   2.5599   2.5742   2.6094   2.6182
     2.9235   2.9268   3.2442   3.2636   3.4469   3.4636   3.7499   3.7564
     4.4498   4.4828   4.6729   4.6808   4.7345   4.7739   4.9380   4.9500
     5.1053   5.1075   5.2332   5.2495   5.6260   5.6598   5.7712   5.7953
     6.0226   6.0483   6.5736   6.5939   6.6813   6.7113   6.8164   6.8286
     6.9140   6.9341   7.4980   7.5157   7.5252   7.5456   7.6314   7.6481
     7.6511   7.6570   8.0517   8.0643   8.1635

          k =-0.5000-0.5000 0.0000 ( 70852 PWs)   bands (ev):

   -21.8733 -21.8716 -21.8673 -21.8632 -21.8581 -21.8566 -21.8532 -21.8513
   -21.8421 -21.8359 -21.8338 -21.8307 -21.8221 -21.8198 -21.8182 -21.8151
   -21.8038 -21.8021 -21.7968 -21.7948 -21.7927 -21.7888 -21.7821 -21.7806
   -21.7762 -21.7742 -21.7712 -21.7707 -21.7680 -21.7667 -21.7630 -21.7602
   -21.7593 -21.7584 -21.7522 -21.7510 -21.7366 -21.7344 -21.7331 -21.7315
   -21.7296 -21.7291 -21.7266 -21.7256 -21.7073 -21.7038 -21.7021 -21.7007
   -21.6998 -21.6981 -21.6970 -21.6959 -21.6952 -21.6921 -21.6890 -21.6876
   -21.6868 -21.6865 -21.6852 -21.6782 -21.6720 -21.6708 -21.6683 -21.6663
   -21.6657 -21.6639 -21.6622 -21.6608 -21.6475 -21.6455 -21.6453 -21.6444
   -21.6363 -21.6353 -21.6350 -21.6335 -21.6331 -21.6328 -21.6317 -21.6307
   -21.6293 -21.6291 -21.6259 -21.6225 -21.6201 -21.6190 -21.6178 -21.6166
   -21.6140 -21.6126 -21.6116 -21.6083 -21.6063 -21.6034 -21.6014 -21.6008
   -21.5980 -21.5973 -21.5935 -21.5922 -21.5905 -21.5881 -21.5865 -21.5848
   -21.5747 -21.5717 -21.5693 -21.5642 -21.5548 -21.5542 -21.5514 -21.5466
   -21.5371 -21.5349 -21.5307 -21.5282 -21.5234 -21.5213 -21.5211 -21.5113
   -21.4498 -21.4473 -21.4451 -21.4411 -21.4384 -21.4333 -21.4323 -21.4274
   -21.4184 -21.4152 -21.4103 -21.4076 -21.4052 -21.4036 -21.4031 -21.4014
   -21.3928 -21.3891 -21.3878 -21.3871 -21.3863 -21.3851 -21.3839 -21.3800
   -21.3782 -21.3770 -21.3720 -21.3712 -21.3683 -21.3664 -21.3589 -21.3578
   -21.3298 -21.3264 -21.3211 -21.3206 -21.3190 -21.3172 -21.3146 -21.3051
    -8.1454  -8.1087  -8.0934  -8.0649  -7.5506  -7.5418  -7.5362  -7.4933
    -6.7566  -6.7332  -6.7067  -6.6782  -5.7824  -5.7732  -5.7434  -5.7201
    -4.7498  -4.7232  -4.7129  -4.6942  -3.6684  -3.6628  -3.6410  -3.6283
    -2.6594  -2.6461  -2.6356  -2.6101  -1.9428  -1.9234  -1.8968  -1.8669
    -0.6167  -0.6111  -0.5982  -0.5859  -0.5563  -0.5479  -0.5385  -0.5302
     0.1379   0.1564   0.1737   0.1881   0.3801   0.3899   0.3959   0.4144
     1.0539   1.0672   1.0824   1.0924   1.4043   1.4135   1.4267   1.4404
     2.3852   2.3975   2.4063   2.4095   2.4633   2.4674   2.4779   2.4822
     3.1360   3.1435   3.1508   3.1583   3.4850   3.4889   3.5019   3.5079
     5.1927   5.2040   5.2150   5.2482   5.5359   5.5590   5.5672   5.5921
     6.1122   6.1286   6.1366   6.1491   6.4284   6.4447   6.4533   6.4752
     6.8127   6.8416   6.8518   6.8644   7.0344   7.0601   7.0741   7.0867
     7.6224   7.6311   7.6474   7.6584   7.6614   7.6646   7.6757   7.6851
     7.9396   7.9458   7.9649   7.9797   8.1128

          k =-0.5000 0.0000 0.0000 ( 70890 PWs)   bands (ev):

   -21.8735 -21.8718 -21.8665 -21.8648 -21.8601 -21.8587 -21.8505 -21.8484
   -21.8364 -21.8304 -21.8249 -21.8240 -21.8228 -21.8189 -21.8130 -21.8115
   -21.8088 -21.8013 -21.7987 -21.7950 -21.7947 -21.7936 -21.7882 -21.7856
   -21.7818 -21.7736 -21.7722 -21.7666 -21.7657 -21.7614 -21.7598 -21.7580
   -21.7564 -21.7563 -21.7535 -21.7503 -21.7490 -21.7459 -21.7392 -21.7372
   -21.7336 -21.7259 -21.7240 -21.7193 -21.7182 -21.7171 -21.7158 -21.7121
   -21.7040 -21.7002 -21.6982 -21.6940 -21.6917 -21.6886 -21.6879 -21.6867
   -21.6860 -21.6852 -21.6820 -21.6813 -21.6804 -21.6793 -21.6723 -21.6717
   -21.6561 -21.6554 -21.6544 -21.6539 -21.6493 -21.6465 -21.6458 -21.6453
   -21.6357 -21.6356 -21.6337 -21.6332 -21.6327 -21.6298 -21.6293 -21.6287
   -21.6275 -21.6246 -21.6228 -21.6209 -21.6187 -21.6174 -21.6169 -21.6141
   -21.6125 -21.6113 -21.6086 -21.6044 -21.6040 -21.6036 -21.6018 -21.6012
   -21.6004 -21.5994 -21.5982 -21.5978 -21.5955 -21.5904 -21.5885 -21.5878
   -21.5729 -21.5679 -21.5638 -21.5622 -21.5602 -21.5587 -21.5538 -21.5525
   -21.5382 -21.5358 -21.5314 -21.5288 -21.5240 -21.5221 -21.5219 -21.5120
   -21.4442 -21.4412 -21.4372 -21.4339 -21.4327 -21.4286 -21.4282 -21.4247
   -21.4217 -21.4174 -21.4163 -21.4163 -21.4136 -21.4071 -21.4021 -21.3992
   -21.3943 -21.3931 -21.3916 -21.3907 -21.3891 -21.3886 -21.3854 -21.3819
   -21.3753 -21.3738 -21.3731 -21.3697 -21.3678 -21.3665 -21.3605 -21.3590
   -21.3297 -21.3264 -21.3221 -21.3206 -21.3178 -21.3160 -21.3124 -21.3041
    -8.5774  -8.5600  -7.9716  -7.9401  -7.0814  -7.0597  -6.9539  -6.9329
    -6.9135  -6.8771  -6.5661  -6.5504  -6.5180  -6.4987  -5.6328  -5.5929
    -4.9404  -4.9180  -4.2384  -4.1869  -4.1598  -4.1131  -3.5106  -3.4886
    -3.3300  -3.3167  -3.2843  -3.2704  -2.2459  -2.2093  -1.1112  -1.0782
    -0.5876  -0.5671  -0.3107  -0.3022  -0.2987  -0.2835  -0.0449  -0.0395
    -0.0257  -0.0183   0.3531   0.3829   0.7614   0.7792   0.7878   0.7995
     0.8498   0.8578   1.4169   1.4781   1.6078   1.6251   2.0596   2.0696
     2.2082   2.2505   2.3064   2.3197   2.3452   2.3488   2.4780   2.4867
     2.5019   2.5051   2.7075   2.7254   4.1405   4.1589   4.4737   4.5062
     4.6346   4.6794   4.7843   4.7943   4.9266   4.9365   5.0264   5.0525
     5.0646   5.0885   5.8814   5.8849   5.9290   5.9366   6.0801   6.0886
     6.4161   6.4455   6.7141   6.7489   6.9820   6.9936   7.0170   7.0349
     7.0574   7.0831   7.4229   7.4448   7.4587   7.4759   7.4792   7.5035
     7.5578   7.5846   7.7612   7.7731   7.8378

     the Fermi energy is     2.6149 ev

!    total energy              =   -5714.57453585 Ry
     estimated scf accuracy    <       0.00000032 Ry
     smearing contrib. (-TS)   =      -0.01262768 Ry
     internal energy E=F+TS    =   -5714.56190818 Ry

     The total energy is F=E-TS. E is the sum of the following terms:
     one-electron contribution =  -15339.28796608 Ry
     hartree contribution      =    7870.11366755 Ry
     xc contribution           =   -1394.07920906 Ry
     ewald contribution        =    3148.69159941 Ry

     convergence has been achieved in  14 iterations

     Forces acting on atoms (cartesian axes, Ry/au):

     atom    1 type  1   force =    -0.00065110    0.00050242   -0.01493170
     atom    2 type  1   force =     0.00508774   -0.00183910    0.00974012
     atom    3 type  1   force =    -0.00105595    0.00697225   -0.00395658
     atom    4 type  1   force =    -0.00835560   -0.00532974    0.00047802
     atom    5 type  1   force =    -0.00862659    0.00035015   -0.00023496
     atom    6 type  1   force =     0.00046383   -0.00697147    0.00257118
     atom    7 type  1   force =    -0.00024732    0.00503528   -0.01095434
     atom    8 type  1   force =     0.00253533    0.00050677    0.01134159
     atom    9 type  1   force =    -0.00283547   -0.00091530   -0.01138608
     atom   10 type  1   force =     0.00792252   -0.00123418    0.01066013
     atom   11 type  1   force =     0.00089369   -0.00235058    0.00141151
     atom   12 type  1   force =     0.00167025   -0.00681505    0.01011495
     atom   13 type  1   force =    -0.00600772    0.01114368   -0.00754425
     atom   14 type  1   force =     0.00802344   -0.00354734    0.00183504
     atom   15 type  1   force =     0.00103026    0.00447389   -0.01157821
     atom   16 type  1   force =    -0.00112892    0.00008777    0.00871298
     atom   17 type  1   force =    -0.00243337   -0.00026011   -0.01005552
     atom   18 type  1   force =    -0.00215132   -0.00609825    0.00975687
     atom   19 type  1   force =     0.00337609    0.00778451    0.00841450
     atom   20 type  1   force =     0.00631577   -0.00118269    0.00471633
     atom   21 type  1   force =     0.00349231    0.00741513   -0.00166205
     atom   22 type  1   force =     0.00532032   -0.00309993   -0.01022831
     atom   23 type  1   force =    -0.00037910    0.00201317   -0.00906866
     atom   24 type  1   force =    -0.00236188    0.00037640    0.01106992
     atom   25 type  1   force =    -0.00017113    0.00001471   -0.00274421
     atom   26 type  1   force =    -0.00527927   -0.00337076    0.00517887
     atom   27 type  1   force =     0.00228926    0.00322174   -0.00106504
     atom   28 type  1   force =    -0.00443774   -0.00909101    0.00537035
     atom   29 type  1   force =     0.00141510    0.00269668   -0.00163066
     atom   30 type  1   force =    -0.00399966   -0.00363267   -0.01033509
     atom   31 type  1   force =    -0.00149505    0.00344011   -0.00169036
     atom   32 type  1   force =     0.00178130   -0.00029650    0.00769368

     Total force =     0.057053     Total SCF correction =     0.003312

     BFGS Geometry Optimization
     Energy error            =      0.0E+00 Ry
     Gradient error          =      1.5E-02 Ry/Bohr

     number of scf cycles    =   1
     number of bfgs steps    =   0

     energy             new  =   -5714.5745358538 Ry

     new trust radius        =       0.0149543316 bohr
     new conv_thr            =       0.0000010000 Ry


ATOMIC_POSITIONS (angstrom)
Ge            0.0050241292        0.0021558446        5.0073143769
Ge            2.0364039154        0.0120133140        6.4366377396
Ge            2.0473878639        2.0267444142        7.8917884069
Ge            0.0141822262        2.0503194208        9.3262949602
Ge            0.0095746037        0.0080901083       10.7548374453
Ge            2.0311570900        0.0031478437       12.2113388651
Ge            2.0433823756        2.0231208194       13.6639610022
Ge            0.0014284701        2.0462231445       15.1104193321
Ge            0.0094940854        4.0638138237        4.9991672268
Ge            2.0373068279        4.0733928483        6.4406056832
Ge            2.0422852393        6.1282693107        7.8675759450
Ge            0.0007968762        6.1319973699        9.3138357111
Ge            0.0133678910        4.0699281488       10.7632252473
Ge            2.0280595513        4.0750132784       12.2168645696
Ge            2.0370192280        6.1086351585       13.6590002156
Ge           -0.0074918802        6.1281623868       15.0943279949
Ge            4.0936621191       -0.0052732351        5.0100700314
Ge            6.1355808699        0.0064371421        6.4440148192
Ge            6.1088286503        2.0297453747        7.8766559516
Ge            4.0681952603        2.0358713725        9.3425041480
Ge            4.0649391189       -0.0156705900       10.7684672975
Ge            6.1079165142        0.0040852495       12.2191478534
Ge            6.1372858861        2.0315189371       13.6567658531
Ge            4.0960827251        2.0384832723       15.0894501578
Ge            4.0908890551        4.0727670717        4.9787966144
Ge            6.1371719591        4.0894880361        6.4517744569
Ge            6.1164296580        6.1218592566        7.8856521737
Ge            4.0846812924        6.1331876301        9.3188502904
Ge            4.0814536097        4.0843756269       10.7673974548
Ge            6.1375074444        4.0749433600       12.2264102109
Ge            6.1175586847        6.1135045394       13.6359604160
Ge            4.0796844378        6.1088370998       15.1053152291



     Writing output data file ./out/ge.save/
     NEW-OLD atomic charge density approx. for the potential

     total cpu time spent up to now is      111.3 secs

     Self-consistent Calculation

     iteration #  1     ecut=    60.00 Ry     beta= 0.40
     Davidson diagonalization with overlap
     ethr =  1.00E-06,  avg # of iterations =  4.0

     Threshold (ethr) on eigenvalues was too large:
     Diagonalizing with lowered threshold

     Davidson diagonalization with overlap
     ethr =  3.39E-08,  avg # of iterations =  4.0

     total cpu time spent up to now is      130.7 secs

     total energy              =   -5714.57736460 Ry
     estimated scf accuracy    <       0.00015849 Ry

     iteration #  2     ecut=    60.00 Ry     beta= 0.40
     Davidson diagonalization with overlap
     ethr =  3.54E-08,  avg # of iterations =  2.2

     total cpu time spent up to now is      136.8 secs

     total energy              =   -5714.57720790 Ry
     estimated scf accuracy    <       0.00409594 Ry

     iteration #  3     ecut=    60.00 Ry     beta= 0.40
     Davidson diagonalization with overlap
     ethr =  3.54E-08,  avg # of iterations =  2.0

     total cpu time spent up to now is      142.6 secs

     total energy              =   -5714.57737922 Ry
     estimated scf accuracy    <       0.00068843 Ry

     iteration #  4     ecut=    60.00 Ry     beta= 0.40
     Davidson diagonalization with overlap
     ethr =  3.54E-08,  avg # of iterations =  2.0

     total cpu time spent up to now is      148.4 secs

     total energy              =   -5714.57741058 Ry
     estimated scf accuracy    <       0.00004385 Ry

     iteration #  5     ecut=    60.00 Ry     beta= 0.40
     Davidson diagonalization with overlap
     ethr =  9.79E-09,  avg # of iterations =  2.0

     total cpu time spent up to now is      154.2 secs

     total energy              =   -5714.57741169 Ry
     estimated scf accuracy    <       0.00005853 Ry

     iteration #  6     ecut=    60.00 Ry     beta= 0.40
     Davidson diagonalization with overlap
     ethr =  9.79E-09,  avg # of iterations =  1.8

     total cpu time spent up to now is      159.8 secs

     total energy              =   -5714.57741739 Ry
     estimated scf accuracy    <       0.00000692 Ry

     iteration #  7     ecut=    60.00 Ry     beta= 0.40
     Davidson diagonalization with overlap
     ethr =  1.55E-09,  avg # of iterations =  2.0

     total cpu time spent up to now is      165.5 secs

     End of self-consistent calculation

          k = 0.0000 0.0000 0.0000 ( 70733 PWs)   bands (ev):

   -21.8677 -21.8647 -21.8623 -21.8576 -21.8553 -21.8523 -21.8493 -21.8380
   -21.8371 -21.8348 -21.8294 -21.8284 -21.8268 -21.8243 -21.8174 -21.8129
   -21.8124 -21.8110 -21.8092 -21.8001 -21.7911 -21.7897 -21.7880 -21.7860
   -21.7846 -21.7842 -21.7811 -21.7771 -21.7756 -21.7717 -21.7686 -21.7661
   -21.7627 -21.7509 -21.7481 -21.7472 -21.7451 -21.7442 -21.7439 -21.7413
   -21.7381 -21.7343 -21.7343 -21.7234 -21.7087 -21.7069 -21.7053 -21.7030
   -21.7017 -21.7002 -21.7001 -21.6959 -21.6894 -21.6853 -21.6814 -21.6799
   -21.6796 -21.6766 -21.6761 -21.6749 -21.6742 -21.6697 -21.6678 -21.6640
   -21.6635 -21.6598 -21.6580 -21.6567 -21.6461 -21.6455 -21.6434 -21.6427
   -21.6367 -21.6362 -21.6358 -21.6316 -21.6314 -21.6310 -21.6289 -21.6282
   -21.6274 -21.6268 -21.6240 -21.6228 -21.6198 -21.6191 -21.6171 -21.6163
   -21.6159 -21.6151 -21.6111 -21.6096 -21.6084 -21.6069 -21.6052 -21.6050
   -21.6023 -21.5969 -21.5898 -21.5887 -21.5850 -21.5802 -21.5767 -21.5752
   -21.5718 -21.5705 -21.5678 -21.5650 -21.5638 -21.5585 -21.5499 -21.5482
   -21.5453 -21.5436 -21.5396 -21.5360 -21.5270 -21.5248 -21.5240 -21.5179
   -21.4457 -21.4437 -21.4321 -21.4262 -21.4248 -21.4231 -21.4211 -21.4188
   -21.4157 -21.4110 -21.4095 -21.4045 -21.4034 -21.4030 -21.3981 -21.3963
   -21.3843 -21.3822 -21.3766 -21.3754 -21.3742 -21.3733 -21.3714 -21.3710
   -21.3680 -21.3656 -21.3632 -21.3605 -21.3581 -21.3574 -21.3570 -21.3530
   -21.3366 -21.3335 -21.3271 -21.3255 -21.3209 -21.3179 -21.3051 -21.3017
    -9.0346  -8.3718  -7.4514  -7.4240  -7.4006  -7.3895  -7.3542  -7.2702
    -7.0198  -7.0130  -6.0960  -5.6044  -5.5758  -5.5614  -5.5376  -5.3715
    -5.3618  -5.1763  -5.1157  -4.7165  -4.7156  -4.5264  -3.9486  -3.9257
    -3.8893  -3.7490  -3.4476  -2.7993  -2.7756  -2.6983  -0.7699  -0.2856
    -0.2628  -0.2498  -0.2311  -0.0049   0.0305   0.0521   0.0904   0.1763
     0.1883   0.4422   0.4579   1.0840   1.1470   1.1619   1.2393   1.4065
     1.6962   1.7030   1.7349   1.7677   1.8039   1.8177   1.8372   1.8895
     1.9036   1.9387   2.0319   2.0423   2.1604   2.3422   2.3569   2.3670
     2.7684   2.8402   2.8730   3.2561   3.7171   3.9552   4.0084   4.3228
     4.3443   4.4981   4.5693   4.5829   4.6148   4.6408   4.6413   4.6721
     4.9376   4.9575   4.9742   5.0222   5.0660   5.0740   5.2064   5.2621
     5.2900   5.3899   6.1990   6.2190   6.2676   6.7516   6.7842   6.9921
     7.0944   7.1534   7.1586   7.1825   7.1998   7.2247   7.2933   7.3605
     7.4418   7.6092   7.6492   7.6665   7.7459

          k = 0.0000-0.5000 0.0000 ( 70890 PWs)   bands (ev):

   -21.8676 -21.8676 -21.8620 -21.8605 -21.8561 -21.8537 -21.8503 -21.8480
   -21.8423 -21.8408 -21.8385 -21.8366 -21.8237 -21.8227 -21.8176 -21.8171
   -21.8040 -21.8032 -21.8002 -21.7996 -21.7976 -21.7964 -21.7962 -21.7949
   -21.7884 -21.7861 -21.7842 -21.7815 -21.7796 -21.7781 -21.7626 -21.7621
   -21.7593 -21.7588 -21.7473 -21.7460 -21.7428 -21.7416 -21.7389 -21.7359
   -21.7339 -21.7327 -21.7285 -21.7273 -21.7043 -21.7026 -21.7018 -21.6999
   -21.6981 -21.6953 -21.6948 -21.6921 -21.6919 -21.6911 -21.6894 -21.6870
   -21.6830 -21.6810 -21.6802 -21.6784 -21.6773 -21.6756 -21.6704 -21.6693
   -21.6624 -21.6605 -21.6591 -21.6575 -21.6479 -21.6466 -21.6443 -21.6437
   -21.6434 -21.6413 -21.6400 -21.6381 -21.6375 -21.6343 -21.6318 -21.6296
   -21.6295 -21.6280 -21.6278 -21.6273 -21.6209 -21.6194 -21.6169 -21.6162
   -21.6154 -21.6117 -21.6103 -21.6090 -21.6087 -21.6061 -21.6047 -21.6044
   -21.6025 -21.5988 -21.5968 -21.5961 -21.5875 -21.5859 -21.5754 -21.5717
   -21.5688 -21.5651 -21.5644 -21.5633 -21.5616 -21.5603 -21.5513 -21.5482
   -21.5458 -21.5443 -21.5404 -21.5367 -21.5278 -21.5252 -21.5248 -21.5186
   -21.4522 -21.4497 -21.4435 -21.4378 -21.4301 -21.4276 -21.4274 -21.4262
   -21.4080 -21.4067 -21.4041 -21.3989 -21.3966 -21.3958 -21.3954 -21.3942
   -21.3847 -21.3818 -21.3786 -21.3748 -21.3744 -21.3722 -21.3716 -21.3714
   -21.3697 -21.3672 -21.3645 -21.3627 -21.3624 -21.3599 -21.3584 -21.3563
   -21.3366 -21.3332 -21.3274 -21.3249 -21.3184 -21.3168 -21.3118 -21.3063
    -8.5882  -8.5621  -7.9753  -7.9503  -7.1254  -7.0843  -6.9498  -6.9168
    -6.8857  -6.8603  -6.7929  -6.7689  -6.2683  -6.2594  -4.9885  -4.9655
    -4.9338  -4.9095  -4.3206  -4.3039  -4.1487  -4.1271  -4.1193  -4.0883
    -3.9263  -3.9136  -3.1625  -3.1549  -2.0765  -2.0621  -1.1719  -1.1416
    -0.3489  -0.3414  -0.3238  -0.3146  -0.1773  -0.1752   0.1692   0.1817
     0.2084   0.2173   0.4852   0.5132   0.8138   0.8326   0.8453   0.8515
     0.9233   0.9261   1.3695   1.3984   1.9342   1.9365   1.9692   1.9720
     2.0470   2.0920   2.1157   2.1245   2.5732   2.5873   2.6130   2.6206
     2.9135   2.9178   3.2530   3.2708   3.4529   3.4686   3.7470   3.7528
     4.4659   4.4934   4.6726   4.6806   4.7570   4.7899   4.9447   4.9555
     5.1013   5.1018   5.2230   5.2389   5.6268   5.6559   5.7720   5.7934
     6.0125   6.0360   6.5700   6.5837   6.6968   6.7180   6.8314   6.8421
     6.9077   6.9265   7.4919   7.5080   7.5172   7.5398   7.6097   7.6320
     7.6472   7.6508   8.0545   8.0658   8.1613

          k =-0.5000-0.5000 0.0000 ( 70852 PWs)   bands (ev):

   -21.8736 -21.8723 -21.8694 -21.8654 -21.8603 -21.8588 -21.8562 -21.8542
   -21.8442 -21.8396 -21.8377 -21.8353 -21.8241 -21.8223 -21.8205 -21.8190
   -21.8018 -21.8000 -21.7956 -21.7950 -21.7944 -21.7916 -21.7850 -21.7841
   -21.7774 -21.7758 -21.7736 -21.7733 -21.7686 -21.7673 -21.7649 -21.7632
   -21.7598 -21.7583 -21.7548 -21.7536 -21.7368 -21.7354 -21.7338 -21.7332
   -21.7318 -21.7308 -21.7292 -21.7282 -21.7085 -21.7062 -21.7040 -21.7024
   -21.6991 -21.6973 -21.6968 -21.6958 -21.6944 -21.6941 -21.6918 -21.6911
   -21.6871 -21.6861 -21.6839 -21.6805 -21.6742 -21.6730 -21.6714 -21.6702
   -21.6689 -21.6677 -21.6666 -21.6650 -21.6459 -21.6449 -21.6440 -21.6435
   -21.6384 -21.6376 -21.6358 -21.6351 -21.6337 -21.6324 -21.6312 -21.6300
   -21.6292 -21.6278 -21.6271 -21.6258 -21.6205 -21.6201 -21.6188 -21.6172
   -21.6153 -21.6124 -21.6110 -21.6082 -21.6056 -21.6042 -21.6032 -21.6016
   -21.5972 -21.5945 -21.5937 -21.5913 -21.5890 -21.5865 -21.5850 -21.5842
   -21.5765 -21.5742 -21.5730 -21.5684 -21.5573 -21.5568 -21.5550 -21.5507
   -21.5332 -21.5316 -21.5283 -21.5258 -21.5206 -21.5204 -21.5183 -21.5134
   -21.4412 -21.4390 -21.4377 -21.4356 -21.4324 -21.4298 -21.4285 -21.4251
   -21.4104 -21.4077 -21.4050 -21.4027 -21.4023 -21.4005 -21.3997 -21.3982
   -21.3835 -21.3830 -21.3816 -21.3813 -21.3796 -21.3791 -21.3783 -21.3737
   -21.3727 -21.3724 -21.3688 -21.3679 -21.3669 -21.3627 -21.3582 -21.3574
   -21.3253 -21.3228 -21.3184 -21.3177 -21.3170 -21.3158 -21.3136 -21.3070
    -8.1396  -8.1107  -8.0981  -8.0753  -7.5390  -7.5340  -7.5261  -7.4937
    -6.7383  -6.7215  -6.6992  -6.6764  -5.7645  -5.7576  -5.7377  -5.7182
    -4.7423  -4.7223  -4.7161  -4.7016  -3.6645  -3.6611  -3.6464  -3.6364
    -2.6532  -2.6432  -2.6369  -2.6165  -1.9337  -1.9176  -1.9001  -1.8772
    -0.6149  -0.6100  -0.5996  -0.5888  -0.5580  -0.5506  -0.5425  -0.5372
     0.1544   0.1690   0.1846   0.1957   0.3850   0.3923   0.3979   0.4122
     1.0652   1.0751   1.0898   1.0979   1.4127   1.4196   1.4294   1.4403
     2.3782   2.3914   2.3983   2.4023   2.4559   2.4616   2.4710   2.4751
     3.1400   3.1455   3.1551   3.1600   3.4871   3.4898   3.5033   3.5067
     5.1930   5.2083   5.2142   5.2393   5.5460   5.5657   5.5725   5.5909
     6.1141   6.1256   6.1292   6.1391   6.4228   6.4341   6.4444   6.4608
     6.8087   6.8315   6.8384   6.8505   7.0332   7.0565   7.0625   7.0742
     7.6225   7.6279   7.6472   7.6518   7.6577   7.6639   7.6737   7.6797
     7.9497   7.9515   7.9654   7.9804   8.1261

          k =-0.5000 0.0000 0.0000 ( 70890 PWs)   bands (ev):

   -21.8738 -21.8726 -21.8686 -21.8665 -21.8631 -21.8617 -21.8526 -21.8508
   -21.8385 -21.8338 -21.8281 -21.8276 -21.8262 -21.8235 -21.8155 -21.8151
   -21.8076 -21.8009 -21.7998 -21.7971 -21.7961 -21.7919 -21.7884 -21.7878
   -21.7843 -21.7770 -21.7717 -21.7677 -21.7665 -21.7614 -21.7605 -21.7597
   -21.7588 -21.7567 -21.7554 -21.7527 -21.7518 -21.7489 -21.7414 -21.7398
   -21.7339 -21.7286 -21.7258 -21.7216 -21.7204 -21.7193 -21.7187 -21.7156
   -21.7015 -21.6988 -21.6964 -21.6953 -21.6914 -21.6906 -21.6893 -21.6888
   -21.6881 -21.6861 -21.6846 -21.6823 -21.6816 -21.6791 -21.6762 -21.6741
   -21.6592 -21.6586 -21.6577 -21.6576 -21.6479 -21.6453 -21.6446 -21.6443
   -21.6368 -21.6353 -21.6334 -21.6327 -21.6312 -21.6305 -21.6294 -21.6283
   -21.6278 -21.6270 -21.6255 -21.6222 -21.6194 -21.6185 -21.6179 -21.6162
   -21.6127 -21.6124 -21.6121 -21.6073 -21.6047 -21.6035 -21.6029 -21.6019
   -21.6005 -21.5989 -21.5972 -21.5948 -21.5917 -21.5884 -21.5866 -21.5861
   -21.5747 -21.5711 -21.5662 -21.5649 -21.5634 -21.5618 -21.5581 -21.5568
   -21.5343 -21.5325 -21.5291 -21.5264 -21.5213 -21.5212 -21.5190 -21.5141
   -21.4354 -21.4333 -21.4310 -21.4254 -21.4251 -21.4235 -21.4214 -21.4199
   -21.4178 -21.4145 -21.4131 -21.4122 -21.4101 -21.4028 -21.4004 -21.3973
   -21.3870 -21.3858 -21.3850 -21.3843 -21.3837 -21.3805 -21.3797 -21.3740
   -21.3706 -21.3698 -21.3686 -21.3670 -21.3649 -21.3641 -21.3598 -21.3585
   -21.3254 -21.3230 -21.3194 -21.3181 -21.3152 -21.3143 -21.3110 -21.3057
    -8.5787  -8.5655  -7.9605  -7.9379  -7.0706  -7.0543  -6.9484  -6.9329
    -6.9192  -6.8913  -6.5401  -6.5283  -6.5019  -6.4895  -5.6163  -5.5885
    -4.9363  -4.9195  -4.2244  -4.1897  -4.1719  -4.1405  -3.5040  -3.4877
    -3.3252  -3.3167  -3.2929  -3.2832  -2.2371  -2.2098  -1.1016  -1.0777
    -0.5796  -0.5641  -0.3034  -0.2969  -0.2943  -0.2826  -0.0355  -0.0310
    -0.0206  -0.0156   0.3696   0.3894   0.7759   0.7878   0.7962   0.8030
     0.8416   0.8462   1.4249   1.4675   1.6155   1.6292   2.0615   2.0699
     2.2036   2.2339   2.3043   2.3173   2.3347   2.3386   2.4773   2.4855
     2.4977   2.5008   2.7063   2.7212   4.1382   4.1532   4.4718   4.4932
     4.6327   4.6652   4.7915   4.7980   4.9295   4.9379   5.0403   5.0571
     5.0674   5.0836   5.8837   5.8884   5.9170   5.9248   6.0754   6.0832
     6.4108   6.4297   6.7087   6.7363   6.9890   6.9993   7.0177   7.0263
     7.0466   7.0630   7.4283   7.4470   7.4560   7.4660   7.4722   7.4892
     7.5576   7.5757   7.7608   7.7692   7.8420

     the Fermi energy is     2.6165 ev

!    total energy              =   -5714.57741792 Ry
     estimated scf accuracy    <       0.00000062 Ry
     smearing contrib. (-TS)   =      -0.01230866 Ry
     internal energy E=F+TS    =   -5714.56510926 Ry

     The total energy is F=E-TS. E is the sum of the following terms:
     one-electron contribution =  -15336.18247431 Ry
     hartree contribution      =    7868.56115589 Ry
     xc contribution           =   -1394.06572938 Ry
     ewald contribution        =    3147.12193854 Ry

     convergence has been achieved in   7 iterations

     Forces acting on atoms (cartesian axes, Ry/au):

     atom    1 type  1   force =    -0.00034809    0.00062112   -0.01229462
     atom    2 type  1   force =     0.00363032   -0.00168833    0.00739467
     atom    3 type  1   force =    -0.00073284    0.00543123   -0.00214102
     atom    4 type  1   force =    -0.00626527   -0.00354087    0.00098230
     atom    5 type  1   force =    -0.00634325   -0.00029867   -0.00041121
     atom    6 type  1   force =     0.00014279   -0.00503482    0.00133093
     atom    7 type  1   force =    -0.00026744    0.00371902   -0.00845417
     atom    8 type  1   force =     0.00199085    0.00038025    0.00931282
     atom    9 type  1   force =    -0.00183491   -0.00093899   -0.00914823
     atom   10 type  1   force =     0.00585529   -0.00053564    0.00783333
     atom   11 type  1   force =     0.00043909   -0.00213664    0.00177030
     atom   12 type  1   force =     0.00134057   -0.00457023    0.00798003
     atom   13 type  1   force =    -0.00407433    0.00777500   -0.00588982
     atom   14 type  1   force =     0.00585117   -0.00240469    0.00054284
     atom   15 type  1   force =     0.00075011    0.00324630   -0.00867487
     atom   16 type  1   force =    -0.00052056    0.00009004    0.00735320
     atom   17 type  1   force =    -0.00173419   -0.00024358   -0.00852999
     atom   18 type  1   force =    -0.00170903   -0.00383660    0.00764272
     atom   19 type  1   force =     0.00250997    0.00564788    0.00637674
     atom   20 type  1   force =     0.00474729   -0.00014672    0.00369577
     atom   21 type  1   force =     0.00279872    0.00510809   -0.00182649
     atom   22 type  1   force =     0.00414142   -0.00230557   -0.00781846
     atom   23 type  1   force =    -0.00027653    0.00128557   -0.00733582
     atom   24 type  1   force =    -0.00188049    0.00042220    0.00908754
     atom   25 type  1   force =    -0.00022336    0.00006689   -0.00259291
     atom   26 type  1   force =    -0.00416871   -0.00269559    0.00422317
     atom   27 type  1   force =     0.00174368    0.00184202   -0.00007025
     atom   28 type  1   force =    -0.00320595   -0.00650158    0.00486080
     atom   29 type  1   force =     0.00103455    0.00138306   -0.00175541
     atom   30 type  1   force =    -0.00336965   -0.00211306   -0.00802680
     atom   31 type  1   force =    -0.00112848    0.00237806   -0.00187525
     atom   32 type  1   force =     0.00110727   -0.00040515    0.00645815

     Total force =     0.043885     Total SCF correction =     0.003429
     Energy error            =      2.9E-03 Ry
     Gradient error          =      1.2E-02 Ry/Bohr

     number of scf cycles    =   2
     number of bfgs steps    =   1

     energy             old  =   -5714.5745358538 Ry
     energy             new  =   -5714.5774179171 Ry

     CASE: energy            _new < energy            _old

     new trust radius        =       0.0164497647 bohr
     new conv_thr            =       0.0000001229 Ry


ATOMIC_POSITIONS (angstrom)
Ge            0.0047748307        0.0025912878        4.9986240093
Ge            2.0389796549        0.0108229433        6.4418754332
Ge            2.0468674972        2.0305888013        7.8902557182
Ge            0.0097430246        2.0478019110        9.3269791075
Ge            0.0050777725        0.0078891558       10.7545505548
Ge            2.0312621610       -0.0004231943       12.2122932294
Ge            2.0431944420        2.0257569721       13.6579754388
Ge            0.0028373642        2.0464925637       15.1170024826
Ge            0.0081884436        4.0631533107        4.9926969364
Ge            2.0414571583        4.0730059194        6.4461589550
Ge            2.0426007415        6.1267625227        7.8688167472
Ge            0.0017450499        6.1287489140        9.3194823732
Ge            0.0104728798        4.0754480919       10.7590564918
Ge            2.0322084800        4.0733046065       12.2172650259
Ge            2.0375511361        6.1109373539       13.6528535881
Ge           -0.0078669126        6.1282257205       15.0995224550
Ge            4.0924316538       -0.0054448962        5.0040449985
Ge            6.1343717720        0.0037047689        6.4494237891
Ge            6.1106074738        2.0337507237        7.8811728553
Ge            4.0715586931        2.0357533482        9.3451197271
Ge            4.0669187013       -0.0120427074       10.7671841794
Ge            6.1108479918        0.0024512996       12.2136109840
Ge            6.1370898039        2.0324340703       13.6515783037
Ge            4.0947523999        2.0387797565       15.0958740956
Ge            4.0907326015        4.0728134070        4.9769695996
Ge            6.1342222517        4.0875812950        6.4547602899
Ge            6.1176646136        6.1231753054        7.8855885579
Ge            4.0824074370        6.1285750075        9.3222785200
Ge            4.0821871381        4.0853677272       10.7661638003
Ge            6.1351269491        4.0734345650       12.2207281610
Ge            6.1167592503        6.1151933202       13.6346432739
Ge            4.0804733234        6.1085535073       15.1098779982



     Writing output data file ./out/ge.save/
     NEW-OLD atomic charge density approx. for the potential

     total cpu time spent up to now is      167.5 secs

     Self-consistent Calculation

     iteration #  1     ecut=    60.00 Ry     beta= 0.40
     Davidson diagonalization with overlap
     ethr =  1.00E-06,  avg # of iterations =  4.0

     Threshold (ethr) on eigenvalues was too large:
     Diagonalizing with lowered threshold

     Davidson diagonalization with overlap
     ethr =  3.00E-08,  avg # of iterations =  4.0

     total cpu time spent up to now is      187.2 secs

     total energy              =   -5714.57959832 Ry
     estimated scf accuracy    <       0.00014527 Ry

     iteration #  2     ecut=    60.00 Ry     beta= 0.40
     Davidson diagonalization with overlap
     ethr =  3.24E-08,  avg # of iterations =  2.2

     total cpu time spent up to now is      193.3 secs

     total energy              =   -5714.57958640 Ry
     estimated scf accuracy    <       0.00033792 Ry

     iteration #  3     ecut=    60.00 Ry     beta= 0.40
     Davidson diagonalization with overlap
     ethr =  3.24E-08,  avg # of iterations =  2.0

     total cpu time spent up to now is      199.2 secs

     total energy              =   -5714.57958774 Ry
     estimated scf accuracy    <       0.00093130 Ry

     iteration #  4     ecut=    60.00 Ry     beta= 0.40
     Davidson diagonalization with overlap
     ethr =  3.24E-08,  avg # of iterations =  1.2

     total cpu time spent up to now is      204.4 secs

     total energy              =   -5714.57962273 Ry
     estimated scf accuracy    <       0.00021500 Ry

     iteration #  5     ecut=    60.00 Ry     beta= 0.40
     Davidson diagonalization with overlap
     ethr =  3.24E-08,  avg # of iterations =  1.5

     total cpu time spent up to now is      209.8 secs

     total energy              =   -5714.57963341 Ry
     estimated scf accuracy    <       0.00006023 Ry

     iteration #  6     ecut=    60.00 Ry     beta= 0.40
     Davidson diagonalization with overlap
     ethr =  1.34E-08,  avg # of iterations =  1.2

     total cpu time spent up to now is      215.0 secs

     total energy              =   -5714.57963840 Ry
     estimated scf accuracy    <       0.00000443 Ry

     iteration #  7     ecut=    60.00 Ry     beta= 0.40
     Davidson diagonalization with overlap
     ethr =  9.89E-10,  avg # of iterations =  2.0

     total cpu time spent up to now is      220.9 secs

     total energy              =   -5714.57963902 Ry
     estimated scf accuracy    <       0.00000074 Ry

     iteration #  8     ecut=    60.00 Ry     beta= 0.40
     Davidson diagonalization with overlap
     ethr =  1.66E-10,  avg # of iterations =  2.2

     total cpu time spent up to now is      226.9 secs

     total energy              =   -5714.57963912 Ry
     estimated scf accuracy    <       0.00000027 Ry

     iteration #  9     ecut=    60.00 Ry     beta= 0.40
     Davidson diagonalization with overlap
     ethr =  5.98E-11,  avg # of iterations =  2.0

     total cpu time spent up to now is      232.7 secs

     End of self-consistent calculation

          k = 0.0000 0.0000 0.0000 ( 70733 PWs)   bands (ev):

   -21.8683 -21.8651 -21.8641 -21.8590 -21.8579 -21.8548 -21.8531 -21.8415
   -21.8389 -21.8362 -21.8332 -21.8317 -21.8307 -21.8291 -21.8193 -21.8147
   -21.8145 -21.8142 -21.8089 -21.7983 -21.7906 -21.7883 -21.7879 -21.7870
   -21.7861 -21.7848 -21.7822 -21.7782 -21.7773 -21.7734 -21.7688 -21.7679
   -21.7663 -21.7521 -21.7508 -21.7470 -21.7454 -21.7439 -21.7437 -21.7427
   -21.7401 -21.7369 -21.7348 -21.7243 -21.7091 -21.7077 -21.7068 -21.7055
   -21.7037 -21.6986 -21.6977 -21.6972 -21.6884 -21.6830 -21.6822 -21.6817
   -21.6801 -21.6801 -21.6779 -21.6766 -21.6737 -21.6708 -21.6702 -21.6668
   -21.6662 -21.6635 -21.6606 -21.6595 -21.6447 -21.6440 -21.6421 -21.6418
   -21.6400 -21.6382 -21.6361 -21.6327 -21.6315 -21.6298 -21.6275 -21.6263
   -21.6260 -21.6259 -21.6248 -21.6247 -21.6226 -21.6223 -21.6202 -21.6189
   -21.6186 -21.6150 -21.6093 -21.6089 -21.6088 -21.6086 -21.6061 -21.6014
   -21.5985 -21.5952 -21.5923 -21.5912 -21.5863 -21.5820 -21.5798 -21.5736
   -21.5697 -21.5679 -21.5670 -21.5639 -21.5619 -21.5615 -21.5526 -21.5517
   -21.5401 -21.5387 -21.5372 -21.5336 -21.5232 -21.5221 -21.5200 -21.5180
   -21.4368 -21.4342 -21.4252 -21.4220 -21.4162 -21.4159 -21.4156 -21.4142
   -21.4090 -21.4055 -21.4023 -21.3999 -21.3991 -21.3989 -21.3947 -21.3928
   -21.3744 -21.3743 -21.3688 -21.3686 -21.3669 -21.3667 -21.3662 -21.3654
   -21.3621 -21.3617 -21.3592 -21.3592 -21.3557 -21.3549 -21.3509 -21.3490
   -21.3307 -21.3285 -21.3243 -21.3229 -21.3176 -21.3148 -21.3017 -21.3004
    -9.0381  -8.3620  -7.4507  -7.4267  -7.4058  -7.3816  -7.3582  -7.2684
    -6.9964  -6.9923  -6.0835  -5.5986  -5.5748  -5.5679  -5.5559  -5.3581
    -5.3521  -5.1588  -5.0983  -4.6985  -4.6983  -4.5317  -3.9432  -3.9178
    -3.9056  -3.7457  -3.4309  -2.8089  -2.7938  -2.7070  -0.7787  -0.2808
    -0.2663  -0.2478  -0.2395  -0.0053   0.0370   0.0512   0.0956   0.1830
     0.1909   0.4422   0.4489   1.1019   1.1500   1.1581   1.2443   1.4029
     1.6837   1.7032   1.7268   1.7654   1.8050   1.8135   1.8293   1.8892
     1.8998   1.9667   2.0655   2.0709   2.1576   2.3426   2.3633   2.3717
     2.7836   2.8348   2.8581   3.2509   3.7114   3.9554   4.0093   4.3193
     4.3374   4.5055   4.5724   4.5829   4.6152   4.6337   4.6541   4.6692
     4.9404   4.9661   4.9827   5.0189   5.0843   5.0897   5.2076   5.2674
     5.2846   5.3933   6.1974   6.2152   6.2582   6.7427   6.7754   6.9699
     7.1034   7.1371   7.1649   7.1821   7.2164   7.2313   7.2977   7.3597
     7.4209   7.5986   7.6252   7.6784   7.7284

          k = 0.0000-0.5000 0.0000 ( 70890 PWs)   bands (ev):

   -21.8687 -21.8675 -21.8636 -21.8617 -21.8581 -21.8565 -21.8540 -21.8523
   -21.8459 -21.8440 -21.8416 -21.8393 -21.8260 -21.8249 -21.8206 -21.8205
   -21.8026 -21.8024 -21.8012 -21.8009 -21.7991 -21.7985 -21.7955 -21.7942
   -21.7889 -21.7875 -21.7854 -21.7826 -21.7810 -21.7803 -21.7630 -21.7624
   -21.7617 -21.7608 -21.7471 -21.7466 -21.7428 -21.7411 -21.7393 -21.7364
   -21.7351 -21.7344 -21.7315 -21.7303 -21.7036 -21.7032 -21.7026 -21.7014
   -21.6969 -21.6955 -21.6952 -21.6946 -21.6930 -21.6910 -21.6897 -21.6875
   -21.6831 -21.6825 -21.6817 -21.6803 -21.6782 -21.6769 -21.6732 -21.6721
   -21.6645 -21.6630 -21.6627 -21.6606 -21.6471 -21.6459 -21.6456 -21.6451
   -21.6432 -21.6425 -21.6420 -21.6409 -21.6375 -21.6350 -21.6313 -21.6295
   -21.6281 -21.6269 -21.6259 -21.6251 -21.6230 -21.6219 -21.6191 -21.6182
   -21.6153 -21.6102 -21.6099 -21.6095 -21.6070 -21.6058 -21.6054 -21.6032
   -21.6011 -21.5998 -21.5995 -21.5966 -21.5890 -21.5883 -21.5699 -21.5677
   -21.5666 -21.5659 -21.5656 -21.5644 -21.5636 -21.5623 -21.5538 -21.5516
   -21.5406 -21.5395 -21.5379 -21.5344 -21.5238 -21.5225 -21.5207 -21.5186
   -21.4435 -21.4406 -21.4356 -21.4326 -21.4242 -21.4224 -21.4222 -21.4211
   -21.4005 -21.4002 -21.3971 -21.3940 -21.3925 -21.3919 -21.3911 -21.3903
   -21.3748 -21.3733 -21.3708 -21.3686 -21.3680 -21.3658 -21.3656 -21.3645
   -21.3633 -21.3630 -21.3611 -21.3605 -21.3577 -21.3568 -21.3564 -21.3532
   -21.3309 -21.3281 -21.3248 -21.3225 -21.3143 -21.3125 -21.3093 -21.3061
    -8.5879  -8.5677  -7.9626  -7.9425  -7.1043  -7.0731  -6.9557  -6.9322
    -6.8822  -6.8618  -6.7877  -6.7694  -6.2571  -6.2482  -4.9677  -4.9491
    -4.9151  -4.8960  -4.3220  -4.3118  -4.1355  -4.1166  -4.1143  -4.0918
    -3.9136  -3.9018  -3.1738  -3.1681  -2.0864  -2.0736  -1.1713  -1.1475
    -0.3512  -0.3452  -0.3320  -0.3254  -0.1896  -0.1881   0.1678   0.1802
     0.2086   0.2159   0.4910   0.5144   0.8177   0.8348   0.8475   0.8532
     0.9273   0.9301   1.3899   1.4135   1.9331   1.9356   1.9658   1.9687
     2.0775   2.1082   2.1155   2.1196   2.5885   2.6021   2.6171   2.6234
     2.9031   2.9090   3.2630   3.2794   3.4597   3.4748   3.7445   3.7496
     4.4824   4.5045   4.6716   4.6799   4.7812   4.8072   4.9518   4.9620
     5.0960   5.0969   5.2117   5.2269   5.6275   5.6514   5.7743   5.7928
     6.0007   6.0218   6.5657   6.5734   6.7127   6.7261   6.8472   6.8562
     6.9023   6.9185   7.4796   7.4938   7.5176   7.5376   7.5871   7.6072
     7.6464   7.6490   8.0579   8.0685   8.1581

          k =-0.5000-0.5000 0.0000 ( 70852 PWs)   bands (ev):

   -21.8738 -21.8732 -21.8712 -21.8681 -21.8621 -21.8606 -21.8592 -21.8572
   -21.8465 -21.8435 -21.8418 -21.8403 -21.8264 -21.8245 -21.8234 -21.8223
   -21.7996 -21.7980 -21.7951 -21.7947 -21.7939 -21.7929 -21.7870 -21.7862
   -21.7784 -21.7770 -21.7755 -21.7753 -21.7693 -21.7679 -21.7662 -21.7654
   -21.7599 -21.7580 -21.7565 -21.7550 -21.7371 -21.7356 -21.7348 -21.7342
   -21.7330 -21.7322 -21.7314 -21.7301 -21.7099 -21.7087 -21.7069 -21.7055
   -21.6976 -21.6966 -21.6961 -21.6947 -21.6945 -21.6942 -21.6937 -21.6919
   -21.6861 -21.6856 -21.6837 -21.6812 -21.6761 -21.6749 -21.6737 -21.6733
   -21.6720 -21.6714 -21.6707 -21.6691 -21.6440 -21.6437 -21.6431 -21.6427
   -21.6403 -21.6396 -21.6385 -21.6374 -21.6346 -21.6315 -21.6304 -21.6300
   -21.6276 -21.6271 -21.6266 -21.6255 -21.6217 -21.6210 -21.6197 -21.6186
   -21.6156 -21.6130 -21.6117 -21.6095 -21.6062 -21.6050 -21.6041 -21.6037
   -21.5929 -21.5911 -21.5900 -21.5885 -21.5847 -21.5838 -21.5827 -21.5823
   -21.5781 -21.5763 -21.5762 -21.5724 -21.5595 -21.5590 -21.5583 -21.5549
   -21.5285 -21.5274 -21.5263 -21.5235 -21.5186 -21.5178 -21.5156 -21.5145
   -21.4322 -21.4306 -21.4300 -21.4287 -21.4261 -21.4249 -21.4233 -21.4213
   -21.4020 -21.4000 -21.3989 -21.3976 -21.3971 -21.3959 -21.3948 -21.3936
   -21.3766 -21.3754 -21.3743 -21.3731 -21.3728 -21.3710 -21.3707 -21.3687
   -21.3678 -21.3654 -21.3646 -21.3643 -21.3622 -21.3587 -21.3561 -21.3555
   -21.3199 -21.3180 -21.3150 -21.3142 -21.3138 -21.3135 -21.3116 -21.3077
    -8.1335  -8.1133  -8.1036  -8.0864  -7.5267  -7.5240  -7.5150  -7.4927
    -6.7192  -6.7084  -6.6912  -6.6739  -5.7462  -5.7410  -5.7306  -5.7148
    -4.7350  -4.7215  -4.7184  -4.7079  -3.6610  -3.6592  -3.6509  -3.6440
    -2.6473  -2.6399  -2.6378  -2.6221  -1.9245  -1.9120  -1.9020  -1.8867
    -0.6132  -0.6089  -0.6011  -0.5932  -0.5589  -0.5528  -0.5464  -0.5434
     0.1728   0.1838   0.1969   0.2048   0.3909   0.3959   0.4010   0.4109
     1.0775   1.0843   1.0976   1.1040   1.4218   1.4275   1.4337   1.4412
     2.3706   2.3843   2.3905   2.3953   2.4480   2.4552   2.4640   2.4683
     3.1440   3.1486   3.1597   3.1630   3.4890   3.4915   3.5048   3.5064
     5.1928   5.2112   5.2135   5.2308   5.5572   5.5720   5.5806   5.5915
     6.1148   6.1212   6.1213   6.1288   6.4151   6.4226   6.4339   6.4450
     6.8031   6.8189   6.8259   6.8362   7.0314   7.0501   7.0519   7.0610
     7.6206   7.6240   7.6414   7.6441   7.6568   7.6640   7.6723   7.6751
     7.9580   7.9601   7.9666   7.9821   8.1404

          k =-0.5000 0.0000 0.0000 ( 70890 PWs)   bands (ev):

   -21.8740 -21.8738 -21.8702 -21.8682 -21.8659 -21.8647 -21.8542 -21.8530
   -21.8409 -21.8380 -21.8313 -21.8312 -21.8297 -21.8282 -21.8185 -21.8182
   -21.8061 -21.8018 -21.7996 -21.7983 -21.7975 -21.7902 -21.7889 -21.7873
   -21.7852 -21.7792 -21.7714 -21.7686 -21.7663 -21.7623 -21.7610 -21.7601
   -21.7599 -21.7569 -21.7564 -21.7544 -21.7539 -21.7514 -21.7432 -21.7423
   -21.7340 -21.7301 -21.7275 -21.7247 -21.7218 -21.7210 -21.7207 -21.7184
   -21.6982 -21.6966 -21.6959 -21.6949 -21.6934 -21.6924 -21.6919 -21.6910
   -21.6893 -21.6862 -21.6850 -21.6831 -21.6811 -21.6794 -21.6780 -21.6755
   -21.6620 -21.6615 -21.6608 -21.6608 -21.6459 -21.6444 -21.6429 -21.6429
   -21.6379 -21.6364 -21.6350 -21.6336 -21.6313 -21.6310 -21.6279 -21.6270
   -21.6267 -21.6265 -21.6261 -21.6244 -21.6209 -21.6203 -21.6187 -21.6174
   -21.6156 -21.6144 -21.6126 -21.6098 -21.6066 -21.6060 -21.6057 -21.6047
   -21.5951 -21.5936 -21.5924 -21.5906 -21.5866 -21.5855 -21.5839 -21.5837
   -21.5760 -21.5738 -21.5686 -21.5677 -21.5655 -21.5644 -21.5622 -21.5610
   -21.5296 -21.5282 -21.5271 -21.5241 -21.5194 -21.5187 -21.5162 -21.5153
   -21.4262 -21.4249 -21.4233 -21.4178 -21.4174 -21.4160 -21.4139 -21.4135
   -21.4133 -21.4112 -21.4098 -21.4079 -21.4026 -21.3979 -21.3971 -21.3938
   -21.3801 -21.3794 -21.3780 -21.3773 -21.3741 -21.3723 -21.3720 -21.3660
   -21.3651 -21.3644 -21.3636 -21.3633 -21.3621 -21.3600 -21.3577 -21.3565
   -21.3204 -21.3186 -21.3162 -21.3152 -21.3116 -21.3115 -21.3085 -21.3059
    -8.5801  -8.5719  -7.9486  -7.9337  -7.0596  -7.0485  -6.9438  -6.9331
    -6.9252  -6.9058  -6.5120  -6.5040  -6.4836  -6.4780  -5.5992  -5.5825
    -4.9321  -4.9200  -4.2127  -4.1934  -4.1831  -4.1660  -3.4968  -3.4859
    -3.3210  -3.3164  -3.3005  -3.2946  -2.2283  -2.2105  -1.0919  -1.0768
    -0.5711  -0.5601  -0.2957  -0.2917  -0.2891  -0.2815  -0.0251  -0.0218
    -0.0143  -0.0117   0.3874   0.3981   0.7911   0.7982   0.8060   0.8083
     0.8324   0.8353   1.4333   1.4595   1.6234   1.6339   2.0623   2.0685
     2.2010   2.2192   2.3015   2.3146   2.3243   2.3291   2.4766   2.4849
     2.4939   2.4969   2.7051   2.7172   4.1355   4.1471   4.4687   4.4806
     4.6302   4.6518   4.7988   4.8031   4.9328   4.9401   5.0539   5.0623
     5.0711   5.0813   5.8840   5.8897   5.9049   5.9132   6.0706   6.0779
     6.4037   6.4129   6.7026   6.7230   6.9953   7.0056   7.0168   7.0191
     7.0364   7.0433   7.4316   7.4460   7.4539   7.4563   7.4666   7.4746
     7.5572   7.5673   7.7603   7.7651   7.8464

     the Fermi energy is     2.6191 ev

!    total energy              =   -5714.57963911 Ry
     estimated scf accuracy    <       0.00000006 Ry
     smearing contrib. (-TS)   =      -0.01199134 Ry
     internal energy E=F+TS    =   -5714.56764777 Ry

     The total energy is F=E-TS. E is the sum of the following terms:
     one-electron contribution =  -15332.39437470 Ry
     hartree contribution      =    7866.66491018 Ry
     xc contribution           =   -1394.04972610 Ry
     ewald contribution        =    3145.21154286 Ry

     convergence has been achieved in   9 iterations

     Forces acting on atoms (cartesian axes, Ry/au):

     atom    1 type  1   force =    -0.00014514    0.00074116   -0.00954740
     atom    2 type  1   force =     0.00237564   -0.00143785    0.00535104
     atom    3 type  1   force =    -0.00050252    0.00385274   -0.00035908
     atom    4 type  1   force =    -0.00410459   -0.00198164    0.00147477
     atom    5 type  1   force =    -0.00398324   -0.00073180   -0.00071510
     atom    6 type  1   force =    -0.00003648   -0.00314941   -0.00002362
     atom    7 type  1   force =    -0.00025654    0.00244705   -0.00613092
     atom    8 type  1   force =     0.00145489    0.00026888    0.00720139
     atom    9 type  1   force =    -0.00103987   -0.00097335   -0.00698881
     atom   10 type  1   force =     0.00392248    0.00008009    0.00522931
     atom   11 type  1   force =     0.00010323   -0.00184869    0.00225303
     atom   12 type  1   force =     0.00110044   -0.00254165    0.00592860
     atom   13 type  1   force =    -0.00229049    0.00462100   -0.00424621
     atom   14 type  1   force =     0.00388486   -0.00130288   -0.00072255
     atom   15 type  1   force =     0.00054339    0.00199247   -0.00599327
     atom   16 type  1   force =    -0.00003550    0.00008699    0.00586190
     atom   17 type  1   force =    -0.00112496   -0.00025109   -0.00701661
     atom   18 type  1   force =    -0.00127066   -0.00186736    0.00556996
     atom   19 type  1   force =     0.00168277    0.00369603    0.00460786
     atom   20 type  1   force =     0.00314979    0.00059180    0.00271994
     atom   21 type  1   force =     0.00192631    0.00308876   -0.00195505
     atom   22 type  1   force =     0.00288622   -0.00159169   -0.00559013
     atom   23 type  1   force =    -0.00016155    0.00067255   -0.00554987
     atom   24 type  1   force =    -0.00144935    0.00050359    0.00717942
     atom   25 type  1   force =    -0.00025525    0.00014261   -0.00241516
     atom   26 type  1   force =    -0.00301392   -0.00196113    0.00312477
     atom   27 type  1   force =     0.00120969    0.00062468    0.00084413
     atom   28 type  1   force =    -0.00215547   -0.00414219    0.00423451
     atom   29 type  1   force =     0.00052011    0.00028864   -0.00182460
     atom   30 type  1   force =    -0.00263906   -0.00082953   -0.00588845
     atom   31 type  1   force =    -0.00079685    0.00144779   -0.00186849
     atom   32 type  1   force =     0.00050160   -0.00053657    0.00525471

     Total force =     0.031780     Total SCF correction =     0.001169
     Energy error            =      2.2E-03 Ry
     Gradient error          =      9.5E-03 Ry/Bohr

     number of scf cycles    =   3
     number of bfgs steps    =   2

     energy             old  =   -5714.5774179171 Ry
     energy             new  =   -5714.5796391104 Ry

     CASE: energy            _new < energy            _old

     new trust radius        =       0.0246746471 bohr
     new conv_thr            =       0.0000000955 Ry


ATOMIC_POSITIONS (angstrom)
Ge            0.0045226162        0.0034994676        4.9856008123
Ge            2.0424068036        0.0089157264        6.4493460465
Ge            2.0461513023        2.0359899770        7.8892444409
Ge            0.0038417150        2.0447818226        9.3287070495
Ge           -0.0007302209        0.0070990969       10.7537271925
Ge            2.0312771757       -0.0050261464       12.2126777652
Ge            2.0428651873        2.0292738308       13.6494288438
Ge            0.0048593265        2.0468706316       15.1268377607
Ge            0.0066072114        4.0619220562        4.9831110836
Ge            2.0470643155        4.0729138624        6.4536445056
Ge            2.0428414611        6.1243186122        7.8715460849
Ge            0.0032267535        6.1248697760        9.3276827684
Ge            0.0069927063        4.0823277733       10.7531312551
Ge            2.0377810654        4.0712999086       12.2167364939
Ge            2.0383113299        6.1138658182       13.6443696786
Ge           -0.0080676460        6.1283373918       15.1074551763
Ge            4.0908043425       -0.0057638405        4.9946265842
Ge            6.1326152009        0.0007007876        6.4571715798
Ge            6.1130115696        2.0390770874        7.8876090995
Ge            4.0760695512        2.0362667958        9.3488929378
Ge            4.0696381715       -0.0074655970       10.7647319829
Ge            6.1149146682        0.0001966975       12.2057833339
Ge            6.1368486785        2.0334865734       13.6439489707
Ge            4.0927681946        2.0393983551       15.1056250480
Ge            4.0904177891        4.0729728491        4.9738353043
Ge            6.1300224453        4.0848550584        6.4590798430
Ge            6.1193733583        6.1243559456        7.8863785826
Ge            4.0793252556        6.1225514551        9.3278683571
Ge            4.0830041443        4.0860841225       10.7638604409
Ge            6.1315390155        4.0719690215       12.2125483800
Ge            6.1156387342        6.1173335762       13.6322661879
Ge            4.0813035560        6.1079088856       15.1169540896



     Writing output data file ./out/ge.save/
     NEW-OLD atomic charge density approx. for the potential

     total cpu time spent up to now is      234.6 secs

     Self-consistent Calculation

     iteration #  1     ecut=    60.00 Ry     beta= 0.40
     Davidson diagonalization with overlap
     ethr =  1.00E-06,  avg # of iterations =  5.0

     Threshold (ethr) on eigenvalues was too large:
     Diagonalizing with lowered threshold

     Davidson diagonalization with overlap
     ethr =  6.03E-08,  avg # of iterations =  4.0

     total cpu time spent up to now is      255.4 secs

     total energy              =   -5714.58150785 Ry
     estimated scf accuracy    <       0.00028551 Ry

     iteration #  2     ecut=    60.00 Ry     beta= 0.40
     Davidson diagonalization with overlap
     ethr =  6.37E-08,  avg # of iterations =  2.5

     total cpu time spent up to now is      261.7 secs

     total energy              =   -5714.58144639 Ry
     estimated scf accuracy    <       0.00115354 Ry

     iteration #  3     ecut=    60.00 Ry     beta= 0.40
     Davidson diagonalization with overlap
     ethr =  6.37E-08,  avg # of iterations =  2.2

     total cpu time spent up to now is      267.7 secs

     total energy              =   -5714.58149170 Ry
     estimated scf accuracy    <       0.00151499 Ry

     iteration #  4     ecut=    60.00 Ry     beta= 0.40
     Davidson diagonalization with overlap
     ethr =  6.37E-08,  avg # of iterations =  1.5

     total cpu time spent up to now is      273.0 secs

     total energy              =   -5714.58154774 Ry
     estimated scf accuracy    <       0.00065680 Ry

     iteration #  5     ecut=    60.00 Ry     beta= 0.40
     Davidson diagonalization with overlap
     ethr =  6.37E-08,  avg # of iterations =  1.8

     total cpu time spent up to now is      278.6 secs

     total energy              =   -5714.58158110 Ry
     estimated scf accuracy    <       0.00007547 Ry

     iteration #  6     ecut=    60.00 Ry     beta= 0.40
     Davidson diagonalization with overlap
     ethr =  1.68E-08,  avg # of iterations =  2.0

     total cpu time spent up to now is      284.3 secs

     total energy              =   -5714.58158856 Ry
     estimated scf accuracy    <       0.00000727 Ry

     iteration #  7     ecut=    60.00 Ry     beta= 0.40
     Davidson diagonalization with overlap
     ethr =  1.62E-09,  avg # of iterations =  2.0

     total cpu time spent up to now is      290.2 secs

     total energy              =   -5714.58158952 Ry
     estimated scf accuracy    <       0.00000144 Ry

     iteration #  8     ecut=    60.00 Ry     beta= 0.40
     Davidson diagonalization with overlap
     ethr =  3.22E-10,  avg # of iterations =  2.0

     total cpu time spent up to now is      296.2 secs

     total energy              =   -5714.58158975 Ry
     estimated scf accuracy    <       0.00000046 Ry

     iteration #  9     ecut=    60.00 Ry     beta= 0.40
     Davidson diagonalization with overlap
     ethr =  1.02E-10,  avg # of iterations =  2.0

     total cpu time spent up to now is      302.0 secs

     End of self-consistent calculation

          k = 0.0000 0.0000 0.0000 ( 70733 PWs)   bands (ev):

   -21.8698 -21.8673 -21.8660 -21.8631 -21.8609 -21.8590 -21.8585 -21.8476
   -21.8416 -21.8400 -21.8384 -21.8370 -21.8366 -21.8357 -21.8221 -21.8191
   -21.8178 -21.8166 -21.8087 -21.7958 -21.7905 -21.7895 -21.7882 -21.7874
   -21.7858 -21.7848 -21.7836 -21.7822 -21.7771 -21.7746 -21.7715 -21.7711
   -21.7689 -21.7582 -21.7504 -21.7471 -21.7464 -21.7451 -21.7432 -21.7429
   -21.7421 -21.7398 -21.7356 -21.7254 -21.7110 -21.7107 -21.7096 -21.7090
   -21.7044 -21.7010 -21.6953 -21.6947 -21.6875 -21.6859 -21.6853 -21.6842
   -21.6836 -21.6829 -21.6789 -21.6760 -21.6737 -21.6731 -21.6727 -21.6709
   -21.6697 -21.6683 -21.6642 -21.6634 -21.6457 -21.6445 -21.6431 -21.6417
   -21.6412 -21.6401 -21.6371 -21.6366 -21.6336 -21.6321 -21.6292 -21.6275
   -21.6269 -21.6268 -21.6253 -21.6246 -21.6244 -21.6233 -21.6230 -21.6222
   -21.6211 -21.6147 -21.6141 -21.6135 -21.6108 -21.6092 -21.6028 -21.5974
   -21.5968 -21.5942 -21.5914 -21.5905 -21.5867 -21.5846 -21.5840 -21.5783
   -21.5720 -21.5666 -21.5634 -21.5617 -21.5587 -21.5586 -21.5564 -21.5560
   -21.5351 -21.5342 -21.5336 -21.5312 -21.5192 -21.5188 -21.5178 -21.5160
   -21.4247 -21.4218 -21.4161 -21.4158 -21.4092 -21.4077 -21.4063 -21.4046
   -21.3998 -21.3981 -21.3934 -21.3930 -21.3922 -21.3917 -21.3892 -21.3870
   -21.3643 -21.3625 -21.3618 -21.3609 -21.3585 -21.3583 -21.3571 -21.3566
   -21.3564 -21.3556 -21.3536 -21.3528 -21.3517 -21.3514 -21.3429 -21.3420
   -21.3239 -21.3225 -21.3199 -21.3197 -21.3135 -21.3106 -21.2976 -21.2968
    -9.0441  -8.3472  -7.4594  -7.4304  -7.4195  -7.3640  -7.3587  -7.2644
    -6.9636  -6.9598  -6.0660  -5.5971  -5.5918  -5.5734  -5.5653  -5.3388
    -5.3338  -5.1336  -5.0734  -4.6737  -4.6720  -4.5393  -3.9392  -3.9373
    -3.8949  -3.7406  -3.4071  -2.8235  -2.8187  -2.7194  -0.7927  -0.2753
    -0.2703  -0.2510  -0.2456  -0.0068   0.0466   0.0509   0.1018   0.1931
     0.1962   0.4356   0.4412   1.1269   1.1459   1.1628   1.2504   1.3978
     1.6574   1.7058   1.7171   1.7622   1.8062   1.8106   1.8188   1.8882
     1.8944   2.0058   2.1136   2.1163   2.1545   2.3433   2.3727   2.3788
     2.8061   2.8257   2.8377   3.2433   3.7025   3.9531   4.0096   4.3144
     4.3262   4.5154   4.5733   4.5757   4.6190   4.6240   4.6639   4.6766
     4.9439   4.9786   4.9949   5.0144   5.1109   5.1128   5.2109   5.2727
     5.2814   5.3992   6.1926   6.2077   6.2441   6.7268   6.7610   6.9358
     7.1098   7.1163   7.1743   7.1810   7.2410   7.2449   7.3084   7.3588
     7.3898   7.5812   7.5920   7.6943   7.7046

          k = 0.0000-0.5000 0.0000 ( 70890 PWs)   bands (ev):

   -21.8707 -21.8687 -21.8659 -21.8641 -21.8619 -21.8609 -21.8598 -21.8591
   -21.8520 -21.8514 -21.8447 -21.8425 -21.8292 -21.8281 -21.8260 -21.8253
   -21.8036 -21.8029 -21.8023 -21.8017 -21.8013 -21.8011 -21.7933 -21.7920
   -21.7896 -21.7895 -21.7865 -21.7840 -21.7825 -21.7820 -21.7655 -21.7641
   -21.7634 -21.7628 -21.7472 -21.7465 -21.7424 -21.7403 -21.7395 -21.7375
   -21.7374 -21.7368 -21.7361 -21.7347 -21.7057 -21.7047 -21.7036 -21.7022
   -21.7005 -21.6993 -21.6984 -21.6970 -21.6908 -21.6900 -21.6885 -21.6872
   -21.6865 -21.6860 -21.6833 -21.6815 -21.6796 -21.6776 -21.6772 -21.6754
   -21.6680 -21.6677 -21.6668 -21.6653 -21.6521 -21.6502 -21.6456 -21.6452
   -21.6450 -21.6447 -21.6421 -21.6414 -21.6393 -21.6374 -21.6345 -21.6317
   -21.6263 -21.6256 -21.6253 -21.6248 -21.6235 -21.6228 -21.6222 -21.6214
   -21.6152 -21.6148 -21.6128 -21.6111 -21.6095 -21.6087 -21.6042 -21.6040
   -21.5999 -21.5997 -21.5956 -21.5936 -21.5898 -21.5894 -21.5714 -21.5694
   -21.5686 -21.5680 -21.5634 -21.5617 -21.5605 -21.5597 -21.5575 -21.5563
   -21.5352 -21.5348 -21.5344 -21.5320 -21.5194 -21.5191 -21.5186 -21.5166
   -21.4319 -21.4288 -21.4260 -21.4249 -21.4163 -21.4154 -21.4146 -21.4140
   -21.3916 -21.3898 -21.3880 -21.3869 -21.3858 -21.3857 -21.3846 -21.3844
   -21.3637 -21.3627 -21.3617 -21.3611 -21.3601 -21.3589 -21.3584 -21.3570
   -21.3560 -21.3549 -21.3544 -21.3539 -21.3531 -21.3521 -21.3487 -21.3485
   -21.3241 -21.3223 -21.3206 -21.3192 -21.3088 -21.3073 -21.3055 -21.3043
    -8.5888  -8.5771  -7.9437  -7.9306  -7.0753  -7.0575  -6.9669  -6.9572
    -6.8751  -6.8626  -6.7793  -6.7685  -6.2406  -6.2319  -4.9383  -4.9264
    -4.8874  -4.8760  -4.3250  -4.3231  -4.1168  -4.1084  -4.1016  -4.0966
    -3.8948  -3.8842  -3.1912  -3.1865  -2.1007  -2.0899  -1.1696  -1.1550
    -0.3546  -0.3509  -0.3443  -0.3412  -0.2097  -0.2084   0.1675   0.1790
     0.2098   0.2155   0.4996   0.5162   0.8215   0.8342   0.8530   0.8571
     0.9328   0.9374   1.4191   1.4355   1.9311   1.9344   1.9602   1.9636
     2.1001   2.1110   2.1239   2.1460   2.6111   2.6203   2.6253   2.6281
     2.8882   2.8968   3.2772   3.2926   3.4691   3.4840   3.7410   3.7454
     4.5043   4.5193   4.6690   4.6782   4.8155   4.8322   4.9615   4.9716
     5.0870   5.0895   5.1935   5.2074   5.6274   5.6446   5.7790   5.7940
     5.9814   5.9987   6.5559   6.5615   6.7339   6.7391   6.8689   6.8753
     6.8962   6.9066   7.4574   7.4688   7.5234   7.5368   7.5547   7.5705
     7.6451   7.6465   8.0631   8.0733   8.1520

          k =-0.5000-0.5000 0.0000 ( 70852 PWs)   bands (ev):

   -21.8756 -21.8745 -21.8742 -21.8725 -21.8650 -21.8637 -21.8635 -21.8622
   -21.8504 -21.8494 -21.8484 -21.8475 -21.8298 -21.8281 -21.8278 -21.8272
   -21.7971 -21.7958 -21.7956 -21.7950 -21.7925 -21.7910 -21.7900 -21.7890
   -21.7796 -21.7788 -21.7781 -21.7778 -21.7703 -21.7694 -21.7688 -21.7682
   -21.7597 -21.7588 -21.7574 -21.7568 -21.7374 -21.7365 -21.7362 -21.7359
   -21.7346 -21.7344 -21.7342 -21.7328 -21.7129 -21.7122 -21.7112 -21.7102
   -21.6992 -21.6983 -21.6979 -21.6973 -21.6938 -21.6929 -21.6915 -21.6893
   -21.6871 -21.6855 -21.6854 -21.6819 -21.6794 -21.6775 -21.6772 -21.6768
   -21.6765 -21.6761 -21.6759 -21.6747 -21.6456 -21.6455 -21.6442 -21.6438
   -21.6419 -21.6413 -21.6401 -21.6391 -21.6363 -21.6351 -21.6329 -21.6311
   -21.6265 -21.6262 -21.6248 -21.6243 -21.6237 -21.6227 -21.6220 -21.6200
   -21.6167 -21.6158 -21.6146 -21.6114 -21.6083 -21.6079 -21.6073 -21.6060
   -21.5865 -21.5855 -21.5850 -21.5825 -21.5824 -21.5817 -21.5794 -21.5793
   -21.5791 -21.5786 -21.5777 -21.5770 -21.5629 -21.5623 -21.5621 -21.5606
   -21.5242 -21.5235 -21.5234 -21.5200 -21.5178 -21.5164 -21.5155 -21.5130
   -21.4215 -21.4203 -21.4192 -21.4190 -21.4177 -21.4171 -21.4168 -21.4163
   -21.3910 -21.3903 -21.3897 -21.3896 -21.3889 -21.3883 -21.3882 -21.3876
   -21.3674 -21.3668 -21.3650 -21.3643 -21.3625 -21.3623 -21.3615 -21.3614
   -21.3596 -21.3583 -21.3578 -21.3555 -21.3531 -21.3530 -21.3526 -21.3526
   -21.3133 -21.3122 -21.3107 -21.3102 -21.3096 -21.3093 -21.3083 -21.3082
    -8.1263  -8.1185  -8.1125  -8.1032  -7.5090  -7.5083  -7.4986  -7.4906
    -6.6923  -6.6901  -6.6793  -6.6700  -5.7225  -5.7206  -5.7161  -5.7077
    -4.7259  -4.7216  -4.7205  -4.7154  -3.6581  -3.6575  -3.6567  -3.6533
    -2.6410  -2.6400  -2.6356  -2.6288  -1.9134  -1.9070  -1.9022  -1.8982
    -0.6116  -0.6084  -0.6042  -0.6014  -0.5604  -0.5556  -0.5523  -0.5505
     0.2004   0.2063   0.2152   0.2189   0.3998   0.4011   0.4066   0.4104
     1.0949   1.0986   1.1084   1.1127   1.4344   1.4394   1.4424   1.4442
     2.3592   2.3724   2.3802   2.3845   2.4360   2.4453   2.4540   2.4578
     3.1490   3.1530   3.1651   3.1690   3.4898   3.4942   3.5051   3.5079
     5.1911   5.2071   5.2156   5.2211   5.5728   5.5822   5.5930   5.5952
     6.1078   6.1112   6.1135   6.1169   6.3982   6.4066   6.4151   6.4220
     6.7921   6.7988   6.8087   6.8154   7.0266   7.0318   7.0409   7.0439
     7.6146   7.6169   7.6277   7.6322   7.6568   7.6626   7.6698   7.6712
     7.9675   7.9689   7.9731   7.9851   8.1604

          k =-0.5000 0.0000 0.0000 ( 70890 PWs)   bands (ev):

   -21.8761 -21.8755 -21.8727 -21.8712 -21.8701 -21.8692 -21.8565 -21.8562
   -21.8457 -21.8455 -21.8367 -21.8363 -21.8356 -21.8347 -21.8230 -21.8224
   -21.8043 -21.8034 -21.8020 -21.8014 -21.7945 -21.7921 -21.7865 -21.7862
   -21.7853 -21.7825 -21.7710 -21.7704 -21.7656 -21.7643 -21.7617 -21.7613
   -21.7600 -21.7590 -21.7568 -21.7565 -21.7561 -21.7549 -21.7461 -21.7459
   -21.7338 -21.7324 -21.7300 -21.7291 -21.7240 -21.7238 -21.7231 -21.7221
   -21.6985 -21.6973 -21.6956 -21.6951 -21.6949 -21.6943 -21.6936 -21.6934
   -21.6924 -21.6880 -21.6849 -21.6839 -21.6827 -21.6802 -21.6778 -21.6776
   -21.6660 -21.6654 -21.6650 -21.6648 -21.6449 -21.6440 -21.6420 -21.6419
   -21.6409 -21.6409 -21.6381 -21.6366 -21.6341 -21.6323 -21.6289 -21.6286
   -21.6257 -21.6256 -21.6253 -21.6238 -21.6237 -21.6223 -21.6221 -21.6206
   -21.6186 -21.6169 -21.6139 -21.6136 -21.6107 -21.6094 -21.6084 -21.6079
   -21.5894 -21.5879 -21.5866 -21.5842 -21.5825 -21.5817 -21.5797 -21.5795
   -21.5768 -21.5759 -21.5723 -21.5719 -21.5680 -21.5678 -21.5675 -21.5664
   -21.5254 -21.5244 -21.5241 -21.5207 -21.5188 -21.5173 -21.5161 -21.5139
   -21.4154 -21.4141 -21.4118 -21.4106 -21.4071 -21.4064 -21.4061 -21.4060
   -21.4049 -21.4038 -21.4034 -21.4018 -21.3923 -21.3922 -21.3893 -21.3888
   -21.3712 -21.3709 -21.3689 -21.3686 -21.3626 -21.3608 -21.3602 -21.3583
   -21.3578 -21.3574 -21.3571 -21.3568 -21.3547 -21.3546 -21.3535 -21.3533
   -21.3146 -21.3134 -21.3123 -21.3119 -21.3072 -21.3058 -21.3052 -21.3049
    -8.5841  -8.5814  -7.9312  -7.9265  -7.0449  -7.0409  -6.9404  -6.9354
    -6.9326  -6.9256  -6.4717  -6.4676  -6.4600  -6.4564  -5.5770  -5.5714
    -4.9265  -4.9204  -4.2026  -4.2023  -4.1963  -4.1949  -3.4877  -3.4820
    -3.3176  -3.3155  -3.3109  -3.3088  -2.2179  -2.2124  -1.0794  -1.0757
    -0.5590  -0.5536  -0.2856  -0.2853  -0.2819  -0.2802  -0.0115  -0.0106
    -0.0036  -0.0029   0.4109   0.4144   0.8114   0.8135   0.8163   0.8187
     0.8209   0.8225   1.4461   1.4512   1.6341   1.6402   2.0610   2.0642
     2.1994   2.2017   2.2962   2.3088   2.3102   2.3156   2.4751   2.4835
     2.4883   2.4919   2.7024   2.7112   4.1307   4.1379   4.4622   4.4641
     4.6257   4.6339   4.8073   4.8115   4.9376   4.9432   5.0680   5.0712
     5.0760   5.0851   5.8788   5.8847   5.8909   5.8988   6.0635   6.0707
     6.3881   6.3906   6.6924   6.7034   6.9962   7.0044   7.0118   7.0154
     7.0194   7.0321   7.4279   7.4351   7.4408   7.4465   7.4623   7.4651
     7.5526   7.5577   7.7580   7.7595   7.8518

     the Fermi energy is     2.6230 ev

!    total energy              =   -5714.58158974 Ry
     estimated scf accuracy    <       0.00000009 Ry
     smearing contrib. (-TS)   =      -0.01157734 Ry
[...]

     iteration #  6     ecut=    60.00 Ry     beta= 0.40
     Davidson diagonalization with overlap
     ethr =  5.57E-06,  avg # of iterations =  7.5

     total cpu time spent up to now is       61.3 secs

     total energy              =   -5714.87709762 Ry
     estimated scf accuracy    <       0.00985883 Ry

     iteration #  7     ecut=    60.00 Ry     beta= 0.40
     Davidson diagonalization with overlap
     ethr =  2.20E-06,  avg # of iterations =  3.0

     total cpu time spent up to now is       67.0 secs

     total energy              =   -5714.87761823 Ry
     estimated scf accuracy    <       0.00033322 Ry

     iteration #  8     ecut=    60.00 Ry     beta= 0.40
     Davidson diagonalization with overlap
     ethr =  7.44E-08,  avg # of iterations =  2.0

     total cpu time spent up to now is       72.9 secs

     total energy              =   -5714.87766771 Ry
     estimated scf accuracy    <       0.00003470 Ry

     iteration #  9     ecut=    60.00 Ry     beta= 0.40
     Davidson diagonalization with overlap
     ethr =  7.74E-09,  avg # of iterations =  2.5

     total cpu time spent up to now is       79.4 secs

     total energy              =   -5714.87767268 Ry
     estimated scf accuracy    <       0.00000502 Ry

     iteration # 10     ecut=    60.00 Ry     beta= 0.40
     Davidson diagonalization with overlap
     ethr =  1.12E-09,  avg # of iterations =  3.0

     total cpu time spent up to now is       85.7 secs

     total energy              =   -5714.87767351 Ry
     estimated scf accuracy    <       0.00000274 Ry

     iteration # 11     ecut=    60.00 Ry     beta= 0.40
     Davidson diagonalization with overlap
     ethr =  6.12E-10,  avg # of iterations =  2.0

     total cpu time spent up to now is       91.6 secs

     End of self-consistent calculation

          k = 0.0000 0.0000 0.0000 ( 70733 PWs)   bands (ev):

   -21.8789 -21.8763 -21.8750 -21.8746 -21.8371 -21.8346 -21.8330 -21.8324
   -21.8043 -21.8014 -21.8006 -21.7998 -21.7238 -21.7212 -21.7181 -21.7177
   -21.7118 -21.7097 -21.7060 -21.7052 -21.6440 -21.6414 -21.6385 -21.6335
   -21.6325 -21.6299 -21.6281 -21.6271 -21.6249 -21.6208 -21.6196 -21.6164
   -21.6147 -21.6136 -21.5982 -21.5965 -21.5958 -21.5939 -21.5881 -21.5824
   -21.5814 -21.5724 -21.5671 -21.5629 -21.5604 -21.5589 -21.5559 -21.5506
   -21.5473 -21.5468 -21.5431 -21.5412 -21.5402 -21.5377 -21.5340 -21.5318
   -21.5280 -21.5275 -21.5252 -21.5130 -21.5112 -21.5071 -21.5059 -21.5047
   -21.5024 -21.4947 -21.4924 -21.4840 -21.4820 -21.4776 -21.4751 -21.4708
   -21.4683 -21.4665 -21.4626 -21.4610 -21.4577 -21.4548 -21.4531 -21.4497
   -21.4431 -21.4424 -21.4410 -21.4402 -21.4352 -21.4331 -21.4318 -21.4298
   -21.4284 -21.4272 -21.4249 -21.4200 -21.4188 -21.4160 -21.4134 -21.4116
   -21.4098 -21.4096 -21.4081 -21.4059 -21.4047 -21.4041 -21.4014 -21.3994
   -21.3986 -21.3972 -21.3918 -21.3906 -21.3889 -21.3866 -21.3847 -21.3836
   -21.3811 -21.3800 -21.3753 -21.3735 -21.3716 -21.3696 -21.3688 -21.3676
   -21.3609 -21.3599 -21.3592 -21.3545 -21.3531 -21.3476 -21.3440 -21.3394
   -21.3371 -21.3359 -21.3351 -21.3329 -21.3325 -21.3317 -21.3247 -21.3237
   -21.3199 -21.3181 -21.3133 -21.3121 -21.2694 -21.2689 -21.2659 -21.2652
   -21.2626 -21.2619 -21.2615 -21.2611 -21.2390 -21.2344 -21.2321 -21.2319
   -21.2262 -21.2215 -21.2197 -21.2194 -21.2191 -21.2155 -21.2141 -21.2132
    -8.9598  -8.4643  -7.5155  -7.3688  -7.3458  -7.2817  -7.2214  -7.1319
    -6.6594  -6.5963  -6.1907  -6.1381  -6.1044  -5.4095  -5.3929  -5.3910
    -5.3834  -5.1863  -5.1720  -4.6864  -4.1273  -4.0447  -3.7681  -3.7553
    -3.6178  -3.5340  -3.2450  -3.0629  -2.2624  -1.9008  -1.5101  -0.5549
    -0.5463  -0.3814  -0.2688  -0.1243   0.1230   0.2933   0.4565   0.5035
     0.5882   0.6259   0.6682   0.7659   0.7850   1.2157   1.2520   1.4362
     1.4386   1.4435   1.5026   1.6227   1.7421   1.8035   1.8333   1.8695
     1.8790   1.9185   2.3365   2.5385   2.6856   2.7593   2.8250   2.8557
     2.8568   3.1476   3.2072   3.6310   4.0484   4.1112   4.1141   4.1454
     4.2710   4.3062   4.3118   4.4480   4.7354   4.7764   4.8472   4.8823
     4.9606   5.2006   5.3577   5.3686   5.3864   5.8273   5.9197   6.0722
     6.3574   6.4537   6.5110   6.6189   6.6846   6.7268   6.7917   6.8302
     6.8356   6.8750   7.1058   7.1229   7.1309   7.2534   7.3342   7.4707
     7.5172   7.5289   7.8269   8.1332   8.1887

          k = 0.0000-0.5000 0.0000 ( 70890 PWs)   bands (ev):

   -21.8797 -21.8768 -21.8763 -21.8752 -21.8380 -21.8349 -21.8347 -21.8336
   -21.8054 -21.8024 -21.8019 -21.8006 -21.7240 -21.7202 -21.7201 -21.7189
   -21.7125 -21.7092 -21.7089 -21.7078 -21.6526 -21.6506 -21.6396 -21.6386
   -21.6343 -21.6327 -21.6301 -21.6285 -21.6242 -21.6236 -21.6213 -21.6203
   -21.6116 -21.6108 -21.6069 -21.6059 -21.5893 -21.5871 -21.5821 -21.5800
   -21.5778 -21.5760 -21.5734 -21.5717 -21.5707 -21.5685 -21.5561 -21.5554
   -21.5474 -21.5467 -21.5457 -21.5450 -21.5340 -21.5332 -21.5261 -21.5246
   -21.5240 -21.5235 -21.5091 -21.5088 -21.5032 -21.5021 -21.4988 -21.4967
   -21.4909 -21.4891 -21.4851 -21.4844 -21.4814 -21.4805 -21.4780 -21.4770
   -21.4753 -21.4745 -21.4646 -21.4637 -21.4625 -21.4620 -21.4591 -21.4582
   -21.4519 -21.4513 -21.4463 -21.4455 -21.4396 -21.4392 -21.4377 -21.4360
   -21.4304 -21.4293 -21.4269 -21.4257 -21.4234 -21.4213 -21.4173 -21.4148
   -21.4100 -21.4095 -21.4072 -21.4067 -21.4042 -21.4033 -21.4023 -21.4013
   -21.3985 -21.3981 -21.3926 -21.3899 -21.3878 -21.3871 -21.3870 -21.3856
   -21.3836 -21.3807 -21.3787 -21.3779 -21.3755 -21.3744 -21.3686 -21.3668
   -21.3624 -21.3601 -21.3584 -21.3567 -21.3449 -21.3446 -21.3419 -21.3402
   -21.3389 -21.3369 -21.3334 -21.3312 -21.3306 -21.3292 -21.3275 -21.3256
   -21.3220 -21.3203 -21.3131 -21.3124 -21.2710 -21.2702 -21.2671 -21.2657
   -21.2651 -21.2649 -21.2640 -21.2636 -21.2403 -21.2354 -21.2342 -21.2331
   -21.2268 -21.2219 -21.2207 -21.2204 -21.2193 -21.2165 -21.2149 -21.2144
    -8.4944  -8.4923  -8.0242  -8.0215  -7.1605  -7.1590  -6.7627  -6.7608
    -6.7206  -6.7170  -6.6358  -6.6315  -6.1301  -6.1275  -5.2337  -5.2322
    -5.1945  -5.1935  -4.0273  -4.0254  -3.9343  -3.9312  -3.8869  -3.8852
    -3.6945  -3.6916  -2.8533  -2.8500  -1.9480  -1.9460  -1.1054  -1.1030
    -0.4593  -0.4566  -0.2654  -0.2630  -0.0331  -0.0303  -0.0139  -0.0099
     0.2293   0.2334   0.8431   0.8463   1.0016   1.0021   1.0421   1.0427
     1.0826   1.0850   1.2857   1.2901   1.4588   1.4651   1.5626   1.5655
     1.9238   1.9297   2.3318   2.3356   2.3855   2.3924   2.8188   2.8199
     3.2482   3.2511   3.4752   3.4779   3.7826   3.7884   4.4736   4.4769
     4.8647   4.8702   5.0394   5.0423   5.1074   5.1093   5.2259   5.2314
     5.6388   5.6454   5.7727   5.7793   6.0055   6.0107   6.3112   6.3121
     6.4826   6.4859   6.5535   6.5627   6.9217   6.9277   7.0479   7.0576
     7.0963   7.1061   7.2115   7.2138   7.5638   7.5657   7.7101   7.7128
     7.7474   7.7495   8.0276   8.0286   8.1445

          k =-0.5000-0.5000 0.0000 ( 70852 PWs)   bands (ev):

   -21.8797 -21.8767 -21.8765 -21.8756 -21.8376 -21.8346 -21.8343 -21.8333
   -21.8051 -21.8020 -21.8018 -21.8007 -21.7232 -21.7196 -21.7193 -21.7182
   -21.7134 -21.7101 -21.7099 -21.7088 -21.6527 -21.6507 -21.6429 -21.6418
   -21.6396 -21.6391 -21.6358 -21.6352 -21.6247 -21.6231 -21.6226 -21.6203
   -21.6151 -21.6082 -21.6067 -21.6049 -21.5904 -21.5870 -21.5826 -21.5812
   -21.5768 -21.5735 -21.5725 -21.5687 -21.5578 -21.5559 -21.5482 -21.5479
   -21.5450 -21.5424 -21.5388 -21.5317 -21.5275 -21.5260 -21.5246 -21.5229
   -21.5173 -21.5159 -21.5114 -21.5090 -21.5070 -21.5061 -21.5059 -21.5024
   -21.4935 -21.4900 -21.4870 -21.4862 -21.4852 -21.4819 -21.4788 -21.4763
   -21.4710 -21.4702 -21.4690 -21.4660 -21.4609 -21.4593 -21.4582 -21.4580
   -21.4544 -21.4531 -21.4453 -21.4444 -21.4410 -21.4395 -21.4375 -21.4345
   -21.4335 -21.4320 -21.4305 -21.4269 -21.4193 -21.4193 -21.4184 -21.4159
   -21.4157 -21.4137 -21.4121 -21.4105 -21.4095 -21.4074 -21.4054 -21.4033
   -21.3990 -21.3939 -21.3927 -21.3905 -21.3901 -21.3880 -21.3868 -21.3840
   -21.3815 -21.3794 -21.3787 -21.3737 -21.3721 -21.3701 -21.3681 -21.3661
   -21.3584 -21.3567 -21.3543 -21.3515 -21.3467 -21.3441 -21.3413 -21.3405
   -21.3401 -21.3378 -21.3346 -21.3335 -21.3312 -21.3275 -21.3268 -21.3245
   -21.3214 -21.3171 -21.3163 -21.3141 -21.2714 -21.2689 -21.2674 -21.2658
   -21.2651 -21.2641 -21.2625 -21.2624 -21.2399 -21.2351 -21.2335 -21.2330
   -21.2268 -21.2217 -21.2208 -21.2200 -21.2189 -21.2160 -21.2145 -21.2138
    -8.0721  -8.0665  -8.0322  -8.0279  -7.6688  -7.6501  -7.4115  -7.3918
    -6.7374  -6.7174  -6.4983  -6.4714  -5.7045  -5.7009  -5.3984  -5.3848
    -4.7988  -4.7895  -4.3969  -4.3852  -3.9812  -3.9769  -3.5115  -3.4833
    -2.9696  -2.9664  -2.4386  -2.4278  -1.8911  -1.8753  -1.5454  -1.5133
    -0.6597  -0.6495  -0.5483  -0.5331  -0.3942  -0.3833  -0.3139  -0.3063
     0.1074   0.1187   0.4225   0.4427   0.5077   0.5106   0.7029   0.7122
     1.3114   1.3177   1.3235   1.3281   1.4215   1.4291   1.5160   1.5384
     1.8038   1.8153   2.0738   2.0919   2.2527   2.2604   2.5855   2.5970
     3.7051   3.7181   3.8437   3.8479   4.5376   4.5948   4.7300   4.7515
     4.9737   4.9824   5.0237   5.0283   5.3869   5.4308   5.7026   5.7143
     5.8000   5.8484   5.9499   5.9811   6.3689   6.3750   6.4702   6.4794
     6.8745   6.8830   6.9054   6.9120   7.2378   7.2690   7.3977   7.4214
     7.4979   7.5320   7.5358   7.5420   7.7809   7.7886   7.8008   7.8151
     7.9932   8.0020   8.0066   8.0211   8.0458

          k =-0.5000 0.0000 0.0000 ( 70890 PWs)   bands (ev):

   -21.8805 -21.8775 -21.8773 -21.8764 -21.8374 -21.8344 -21.8341 -21.8330
   -21.8052 -21.8020 -21.8018 -21.8007 -21.7246 -21.7209 -21.7208 -21.7196
   -21.7127 -21.7095 -21.7093 -21.7081 -21.6454 -21.6440 -21.6432 -21.6425
   -21.6394 -21.6391 -21.6330 -21.6320 -21.6225 -21.6215 -21.6206 -21.6197
   -21.6149 -21.6144 -21.6001 -21.5982 -21.5943 -21.5901 -21.5891 -21.5840
   -21.5781 -21.5766 -21.5630 -21.5604 -21.5590 -21.5560 -21.5506 -21.5491
   -21.5438 -21.5422 -21.5418 -21.5411 -21.5338 -21.5323 -21.5298 -21.5279
   -21.5225 -21.5213 -21.5166 -21.5161 -21.5140 -21.5122 -21.5032 -21.5023
   -21.4983 -21.4970 -21.4940 -21.4931 -21.4836 -21.4827 -21.4802 -21.4788
   -21.4773 -21.4765 -21.4714 -21.4685 -21.4553 -21.4545 -21.4534 -21.4530
   -21.4465 -21.4457 -21.4421 -21.4408 -21.4393 -21.4380 -21.4367 -21.4347
   -21.4306 -21.4294 -21.4256 -21.4229 -21.4185 -21.4160 -21.4155 -21.4151
   -21.4128 -21.4116 -21.4097 -21.4086 -21.4078 -21.4071 -21.4036 -21.4026
   -21.3995 -21.3992 -21.3913 -21.3905 -21.3894 -21.3876 -21.3852 -21.3828
   -21.3820 -21.3818 -21.3790 -21.3766 -21.3706 -21.3681 -21.3645 -21.3638
   -21.3632 -21.3603 -21.3563 -21.3543 -21.3510 -21.3498 -21.3436 -21.3405
   -21.3398 -21.3376 -21.3348 -21.3325 -21.3311 -21.3304 -21.3257 -21.3252
   -21.3228 -21.3222 -21.3155 -21.3136 -21.2705 -21.2696 -21.2667 -21.2657
   -21.2642 -21.2635 -21.2629 -21.2627 -21.2394 -21.2345 -21.2329 -21.2325
   -21.2279 -21.2231 -21.2217 -21.2208 -21.2193 -21.2157 -21.2140 -21.2137
    -8.4913  -8.4892  -8.0333  -8.0282  -7.2463  -7.2424  -6.8160  -6.8122
    -6.6859  -6.6826  -6.1544  -6.1498  -6.1195  -6.1143  -5.8257  -5.8204
    -5.3210  -5.3125  -4.1650  -4.1560  -3.9376  -3.9356  -3.7085  -3.7009
    -2.8133  -2.8050  -2.7721  -2.7634  -2.5164  -2.5109  -1.2296  -1.2219
    -0.5581  -0.5511  -0.2026  -0.1995  -0.0891  -0.0875   0.0714   0.0786
     0.1972   0.2020   0.6820   0.6849   0.8402   0.8418   0.9164   0.9177
     1.0850   1.0884   1.2994   1.3018   1.5624   1.5703   1.8668   1.8770
     2.0175   2.0251   2.2893   2.2920   2.3610   2.3713   2.5446   2.5484
     3.4345   3.4366   3.4690   3.4731   4.1768   4.1856   4.2770   4.2814
     4.5813   4.5842   5.0309   5.0379   5.3847   5.3868   5.5047   5.5154
     5.5228   5.5319   5.7235   5.7306   5.9525   5.9617   6.1835   6.1946
     6.5155   6.5163   6.6949   6.6986   6.8177   6.8290   7.1446   7.1530
     7.2503   7.2550   7.3610   7.3632   7.3842   7.3937   7.6767   7.6777
     7.8597   7.8630   7.9233   7.9284   8.0523

     the Fermi energy is     2.9206 ev

!    total energy              =   -5714.87767406 Ry
     estimated scf accuracy    <       0.00000025 Ry
     smearing contrib. (-TS)   =      -0.00527751 Ry
     internal energy E=F+TS    =   -5714.87239655 Ry

     The total energy is F=E-TS. E is the sum of the following terms:
     one-electron contribution =  -16138.50264273 Ry
     hartree contribution      =    8271.82668193 Ry
     xc contribution           =   -1394.52233178 Ry
     ewald contribution        =    3546.32589603 Ry

     convergence has been achieved in  11 iterations

     Forces acting on atoms (cartesian axes, Ry/au):

     atom    1 type  1   force =    -0.00000437   -0.00017384    0.00026044
     atom    2 type  1   force =     0.00020898   -0.00033808    0.00013281
     atom    3 type  1   force =     0.00002637   -0.00012622   -0.00032572
     atom    4 type  1   force =    -0.00012310   -0.00013504    0.00009094
     atom    5 type  1   force =     0.00004105    0.00025853   -0.00016442
     atom    6 type  1   force =    -0.00009514    0.00028961    0.00006140
     atom    7 type  1   force =     0.00029217   -0.00016107    0.00018966
     atom    8 type  1   force =    -0.00016623   -0.00003692   -0.00070465
     atom    9 type  1   force =    -0.00044973   -0.00036271    0.00022397
     atom   10 type  1   force =    -0.00000183   -0.00041047    0.00047797
     atom   11 type  1   force =     0.00020419    0.00010539   -0.00014697
     atom   12 type  1   force =     0.00008569   -0.00015240    0.00065625
     atom   13 type  1   force =    -0.00005405    0.00003724   -0.00036885
     atom   14 type  1   force =    -0.00029718    0.00042399    0.00004427
     atom   15 type  1   force =    -0.00011902    0.00077170   -0.00001980
     atom   16 type  1   force =     0.00023251   -0.00028776    0.00024250
     atom   17 type  1   force =    -0.00008183   -0.00038730    0.00003544
     atom   18 type  1   force =    -0.00013093    0.00001682   -0.00017258
     atom   19 type  1   force =     0.00009772    0.00031526   -0.00022372
     atom   20 type  1   force =    -0.00009234   -0.00037542    0.00001450
     atom   21 type  1   force =     0.00006920    0.00049926   -0.00043867
     atom   22 type  1   force =     0.00019271    0.00051099    0.00032600
     atom   23 type  1   force =     0.00000052   -0.00009877   -0.00033904
     atom   24 type  1   force =    -0.00003536    0.00082477    0.00008771
     atom   25 type  1   force =     0.00029069    0.00005775    0.00001372
     atom   26 type  1   force =    -0.00008179   -0.00090456   -0.00027367
     atom   27 type  1   force =    -0.00027161   -0.00013238    0.00058618
     atom   28 type  1   force =     0.00003064   -0.00035254    0.00020890
     atom   29 type  1   force =     0.00027870    0.00005260   -0.00057589
     atom   30 type  1   force =     0.00023509   -0.00040945    0.00019800
     atom   31 type  1   force =    -0.00023842    0.00077622   -0.00009020
     atom   32 type  1   force =    -0.00004332   -0.00009520   -0.00000648

     Total force =     0.002993     Total SCF correction =     0.002245
     SCF correction compared to forces is large: reduce conv_thr to get better values

     BFGS Geometry Optimization
     Energy error            =      0.0E+00 Ry
     Gradient error          =      9.0E-04 Ry/Bohr

     bfgs converged in   1 scf cycles and   0 bfgs steps
     (criteria: energy <  1.0E-04 Ry, force <  1.0E-03 Ry/Bohr)

     End of BFGS Geometry Optimization

     Final energy             =   -5714.8776740624 Ry
Begin final coordinates

ATOMIC_POSITIONS (angstrom)
Ge            0.0442245798        0.6078418500        4.8107622158
Ge            1.9872059205        0.0134972824        6.4192382143
Ge            2.1406439802        2.0277697640        7.8965228041
Ge           -0.0025495256        1.9907074189        9.2403990257
Ge            0.0114384684        0.0441267661       10.8575188754
Ge            2.1531467178        0.0037280226       12.2000613012
Ge            1.9276879726        2.0106517867       13.6811710162
Ge           -0.0207318764        1.4353094388       15.2859783885
Ge            0.0433176677        3.0528794988        5.6564442983
Ge            2.1613901163        4.1078450475        6.4077085461
Ge            1.9280885415        6.1082956308        7.8955111133
Ge           -0.0101554201        6.1652815532        9.4334567789
Ge           -0.0043518257        4.0334568075       10.6586587836
Ge            1.9380545243        4.0888399046       12.1993095324
Ge            2.0964709717        6.1000714980       13.6788904607
Ge           -0.0357607396        7.1508812598       14.4362613397
Ge            4.1239931067       -1.0273016764        5.6596022453
Ge            6.2459558346        0.0303683285        6.3998518712
Ge            6.0186995194        2.0262750672        7.8949929079
Ge            4.0833947952        2.0856721844        9.4397593731
Ge            4.0908465042       -0.0489236366       10.6610014648
Ge            6.0318307046        0.0093887358       12.2075286664
Ge            6.1879960203        2.0233838559       13.6873484116
Ge            4.0502890675        3.0609867896       14.4355832559
Ge            4.1154335666        4.6853119651        4.8149212360
Ge            6.0661484704        4.0920877520        6.4131611382
Ge            6.2123846069        6.1080819505        7.8845297270
Ge            4.0715151115        6.0729044856        9.2360283641
Ge            4.0815496160        4.1287253994       10.8583035300
Ge            6.2207154958        4.0913538512       12.2040231246
Ge            6.0041758643        6.0882258323       13.6975008319
Ge            4.0441974207        5.5074629645       15.2823988378
End final coordinates



     Writing output data file ./out/ge.save/
 
     init_run     :      1.78s CPU      2.39s WALL (       1 calls)
     electrons    :     66.24s CPU     93.98s WALL (       1 calls)
     forces       :      1.06s CPU      1.63s WALL (       1 calls)

     Called by init_run:
     wfcinit      :      1.54s CPU      2.05s WALL (       1 calls)
     potinit      :      0.05s CPU      0.09s WALL (       1 calls)
     hinit0       :      0.06s CPU      0.09s WALL (       1 calls)

     Called by electrons:
     c_bands      :     61.07s CPU     83.11s WALL (      12 calls)
     sum_band     :      4.94s CPU      5.60s WALL (      12 calls)
     v_of_rho     :      0.16s CPU      0.27s WALL (      12 calls)
     mix_rho      :      0.07s CPU      0.11s WALL (      12 calls)

     Called by c_bands:
     init_us_2    :      0.74s CPU      0.76s WALL (     104 calls)
     cegterg      :     58.10s CPU     80.06s WALL (      48 calls)

     Called by *egterg:
     cdiaghg      :      7.77s CPU     17.19s WALL (     313 calls)
     h_psi        :     29.11s CPU     32.93s WALL (     321 calls)
     g_psi        :      0.16s CPU      0.17s WALL (     269 calls)

     Called by h_psi:
     h_psi:calbec :      5.24s CPU      5.67s WALL (     321 calls)
     vloc_psi     :     19.45s CPU     22.67s WALL (     321 calls)
     add_vuspsi   :      4.10s CPU      4.16s WALL (     321 calls)

     General routines
     calbec       :      5.94s CPU      6.92s WALL (     337 calls)
     fft          :      0.13s CPU      0.25s WALL (     131 calls)
     ffts         :      0.01s CPU      0.01s WALL (      12 calls)
     fftw         :     21.80s CPU     25.39s WALL (   75422 calls)
 
     Parallel routines
 
     PWSCF        :   1m10.02s CPU   1m40.10s WALL

 
   This run was terminated on:   6: 7:57  29Apr2025            

=------------------------------------------------------------------------------=
   JOB DONE.
=------------------------------------------------------------------------------=
