
     Program PWSCF v.6.8 starts on 28Apr2025 at 10:44:47 

     This program is part of the open-source Quantum ESPRESSO suite
     for quantum simulation of materials; please cite
         "P. Giannozzi et al., J. Phys.:Condens. Matter 21 395502 (2009);
         "P. Giannozzi et al., J. Phys.:Condens. Matter 29 465901 (2017);
         "P. Giannozzi et al., J. Chem. Phys. 152 154105 (2020);
          URL http://www.quantum-espresso.org", 
     in publications or presentations arising from this work. More details at
     http://www.quantum-espresso.org/quote

     Parallel version (MPI & OpenMP), running on      56 processor cores
     Number of MPI processes:                56
     Threads/MPI process:                     1

     MPI processes distributed on     1 nodes
     R & G space division:  proc/nbgrp/npool/nimage =      56
     186283 MiB available memory on the printing compute node when the environment starts
 
     Reading input from surface_relax.in
Warning: card &CELL ignored
Warning: card / ignored
Warning: card &FCP ignored
Warning: card / ignored
Warning: card &RISM ignored
Warning: card / ignored

     Current dimensions of program PWSCF are:
     Max number of different atomic species (ntypx) = 10
     Max number of k-points (npk) =  40000
     Max angular momentum in pseudopotentials (lmaxx) =  4

     gamma-point specific algorithms are used
     Found symmetry operation: I + (  0.0000  0.5000  0.0000)
     This is a supercell, fractional translations are disabled
     Message from routine setup:
     using ibrav=0 with symmetry is DISCOURAGED, use correct ibrav instead

     Subspace diagonalization in iterative solution of the eigenvalue problem:
     one sub-group per band group will be used
     scalapack distributed-memory algorithm (size of sub-group:  7*  7 procs)

 
     Parallelization info
     --------------------
     sticks:   dense  smooth     PW     G-vecs:    dense   smooth      PW
     Min          66      66     16                 9370     9370    1164
     Max          68      68     18                 9416     9416    1198
     Sum        3805    3805    955               526731   526731   65881
 
     Using Slab Decomposition
 


     bravais-lattice index     =            0
     lattice parameter (alat)  =      15.1659  a.u.
     unit-cell volume          =    8388.9373 (a.u.)^3
     number of atoms/cell      =           32
     number of atomic types    =            1
     number of electrons       =       448.00
     number of Kohn-Sham states=          269
     kinetic-energy cutoff     =      60.0000  Ry
     charge density cutoff     =     240.0000  Ry
     scf convergence threshold =      1.0E-06
     mixing beta               =       0.4000
     number of iterations used =            8  plain     mixing
     energy convergence thresh.=      1.0E-04
     force convergence thresh. =      1.0E-03
     Exchange-correlation= PBE
                           (   1   4   3   4   0   0   0)
     nstep                     =           50


     celldm(1)=  15.165913  celldm(2)=   0.000000  celldm(3)=   0.000000
     celldm(4)=   0.000000  celldm(5)=   0.000000  celldm(6)=   0.000000

     crystal axes: (cart. coord. in units of alat)
               a(1) = (   1.000000   0.000000   0.000000 )  
               a(2) = (   0.500000   0.866025   0.000000 )  
               a(3) = (   0.000000   0.000000   2.776966 )  

     reciprocal axes: (cart. coord. in units 2 pi/alat)
               b(1) = (  1.000000 -0.577351  0.000000 )  
               b(2) = (  0.000000  1.154701  0.000000 )  
               b(3) = (  0.000000  0.000000  0.360105 )  


     PseudoPot. # 1 for Ge read from file:
     ./Ge.upf
     MD5 check sum: 087fa14d6c89b52166990835c3b338da
     Pseudo is Norm-conserving + core correction, Zval = 14.0
     Generated using ONCVPSP code by D. R. Hamann
     Using radial grid of 1560 points,  6 beta functions with: 
                l(1) =   0
                l(2) =   0
                l(3) =   1
                l(4) =   1
                l(5) =   2
                l(6) =   2

     atomic species   valence    mass     pseudopotential
        Ge            14.00    72.63000     Ge( 1.00)

      2 Sym. Ops. (no inversion) found



   Cartesian axes

     site n.     atom                  positions (alat units)
         1           Ge  tau(   1) = (   0.1250001   0.0721688   0.9292038  )
         2           Ge  tau(   2) = (   0.1250000   0.0721688   0.6230176  )
         3           Ge  tau(   3) = (   0.3750002   0.2165064   1.3374521  )
         4           Ge  tau(   4) = (   0.3750001   0.2165064   1.0312659  )
         5           Ge  tau(   5) = (   0.6250003   0.3608439   1.7457004  )
         6           Ge  tau(   6) = (   0.6250002   0.3608439   1.4395142  )
         7           Ge  tau(   7) = (   0.1250003   0.0721688   2.1539487  )
         8           Ge  tau(   8) = (   0.1250002   0.0721688   1.8477625  )
         9           Ge  tau(   9) = (   0.3750002   0.5051815   0.9292038  )
        10           Ge  tau(  10) = (   0.3750001   0.5051815   0.6230176  )
        11           Ge  tau(  11) = (   0.6250003   0.6495191   1.3374521  )
        12           Ge  tau(  12) = (   0.6250003   0.6495191   1.0312659  )
        13           Ge  tau(  13) = (   0.8750004   0.7938566   1.7457004  )
        14           Ge  tau(  14) = (   0.8750004   0.7938566   1.4395142  )
        15           Ge  tau(  15) = (   0.3750004   0.5051815   2.1539487  )
        16           Ge  tau(  16) = (   0.3750003   0.5051815   1.8477625  )
        17           Ge  tau(  17) = (   0.6250001   0.0721688   0.9292038  )
        18           Ge  tau(  18) = (   0.6250000   0.0721688   0.6230176  )
        19           Ge  tau(  19) = (   0.8750002   0.2165064   1.3374521  )
        20           Ge  tau(  20) = (   0.8750001   0.2165064   1.0312659  )
        21           Ge  tau(  21) = (   1.1250003   0.3608439   1.7457004  )
        22           Ge  tau(  22) = (   1.1250002   0.3608439   1.4395142  )
        23           Ge  tau(  23) = (   0.6250003   0.0721688   2.1539487  )
        24           Ge  tau(  24) = (   0.6250002   0.0721688   1.8477625  )
        25           Ge  tau(  25) = (   0.8750002   0.5051815   0.9292038  )
        26           Ge  tau(  26) = (   0.8750001   0.5051815   0.6230176  )
        27           Ge  tau(  27) = (   1.1250003   0.6495191   1.3374521  )
        28           Ge  tau(  28) = (   1.1250003   0.6495191   1.0312659  )
        29           Ge  tau(  29) = (   1.3750004   0.7938566   1.7457004  )
        30           Ge  tau(  30) = (   1.3750004   0.7938566   1.4395142  )
        31           Ge  tau(  31) = (   0.8750004   0.5051815   2.1539487  )
        32           Ge  tau(  32) = (   0.8750003   0.5051815   1.8477625  )

     number of k points=     1  Gaussian smearing, width (Ry)=  0.0100
                       cart. coord. in units 2pi/alat
        k(    1) = (   0.0000000   0.0000000   0.0000000), wk =   2.0000000

     Dense  grid:   263366 G-vectors     FFT dimensions: (  75,  75, 216)

     Estimated max dynamical RAM per process >      23.26 MB

     Estimated total dynamical RAM >       1.27 GB

     Initial potential from superposition of free atoms

     starting charge  447.97367, renormalised to  448.00000

     negative rho (up, down):  1.989E-05 0.000E+00
     Starting wfcs are  288 randomized atomic wfcs

     total cpu time spent up to now is        0.7 secs

     Self-consistent Calculation

     iteration #  1     ecut=    60.00 Ry     beta= 0.40
     Davidson diagonalization with overlap
     ethr =  1.00E-02,  avg # of iterations =  5.0

     Threshold (ethr) on eigenvalues was too large:
     Diagonalizing with lowered threshold

     Davidson diagonalization with overlap
     ethr =  2.54E-04,  avg # of iterations =  5.0

     negative rho (up, down):  6.209E-06 0.000E+00

     total cpu time spent up to now is        2.5 secs

     total energy              =   -5713.39249593 Ry
     estimated scf accuracy    <       1.24868252 Ry

     iteration #  2     ecut=    60.00 Ry     beta= 0.40
     Davidson diagonalization with overlap
     ethr =  2.79E-04,  avg # of iterations =  9.0

     negative rho (up, down):  1.086E-06 0.000E+00

     total cpu time spent up to now is        3.5 secs

     total energy              =   -5712.78363469 Ry
     estimated scf accuracy    <      14.30872922 Ry

     iteration #  3     ecut=    60.00 Ry     beta= 0.40
     Davidson diagonalization with overlap
     ethr =  2.79E-04,  avg # of iterations =  7.0

     negative rho (up, down):  2.391E-07 0.000E+00

     total cpu time spent up to now is        4.4 secs

     total energy              =   -5713.67695650 Ry
     estimated scf accuracy    <       0.44283953 Ry

     iteration #  4     ecut=    60.00 Ry     beta= 0.40
     Davidson diagonalization with overlap
     ethr =  9.88E-05,  avg # of iterations =  2.0

     total cpu time spent up to now is        5.1 secs

     total energy              =   -5713.73697100 Ry
     estimated scf accuracy    <       0.16724911 Ry

     iteration #  5     ecut=    60.00 Ry     beta= 0.40
     Davidson diagonalization with overlap
     ethr =  3.73E-05,  avg # of iterations =  2.0

     total cpu time spent up to now is        5.7 secs

     total energy              =   -5713.74268902 Ry
     estimated scf accuracy    <       0.12379661 Ry

     iteration #  6     ecut=    60.00 Ry     beta= 0.40
     Davidson diagonalization with overlap
     ethr =  2.76E-05,  avg # of iterations =  1.0

     total cpu time spent up to now is        6.2 secs

     total energy              =   -5713.74700732 Ry
     estimated scf accuracy    <       0.08196626 Ry

     iteration #  7     ecut=    60.00 Ry     beta= 0.40
     Davidson diagonalization with overlap
     ethr =  1.83E-05,  avg # of iterations =  1.0

     total cpu time spent up to now is        6.8 secs

     total energy              =   -5713.75084380 Ry
     estimated scf accuracy    <       0.04617751 Ry

     iteration #  8     ecut=    60.00 Ry     beta= 0.40
     Davidson diagonalization with overlap
     ethr =  1.03E-05,  avg # of iterations =  1.0

     total cpu time spent up to now is        7.3 secs

     total energy              =   -5713.75206455 Ry
     estimated scf accuracy    <       0.00225401 Ry

     iteration #  9     ecut=    60.00 Ry     beta= 0.40
     Davidson diagonalization with overlap
     ethr =  5.03E-07,  avg # of iterations =  2.0

     total cpu time spent up to now is        7.9 secs

     total energy              =   -5713.75216844 Ry
     estimated scf accuracy    <       0.00031462 Ry

     iteration # 10     ecut=    60.00 Ry     beta= 0.40
     Davidson diagonalization with overlap
     ethr =  7.02E-08,  avg # of iterations =  2.0

     total cpu time spent up to now is        8.6 secs

     total energy              =   -5713.75221312 Ry
     estimated scf accuracy    <       0.00005472 Ry

     iteration # 11     ecut=    60.00 Ry     beta= 0.40
     Davidson diagonalization with overlap
     ethr =  1.22E-08,  avg # of iterations =  2.0

     total cpu time spent up to now is        9.2 secs

     total energy              =   -5713.75221805 Ry
     estimated scf accuracy    <       0.00000579 Ry

     iteration # 12     ecut=    60.00 Ry     beta= 0.40
     Davidson diagonalization with overlap
     ethr =  1.29E-09,  avg # of iterations =  2.0

     total cpu time spent up to now is        9.8 secs

     End of self-consistent calculation

          k = 0.0000 0.0000 0.0000 ( 32941 PWs)   bands (ev):

   -21.5850 -21.5850 -21.5849 -21.5745 -21.5745 -21.5745 -21.5743 -21.5743
   -21.5656 -21.5656 -21.5656 -21.5254 -21.5117 -21.5084 -21.5084 -21.4944
   -21.4944 -21.4944 -21.4589 -21.4589 -21.4589 -21.4184 -21.4184 -21.4184
   -21.4142 -21.4141 -21.4141 -21.4034 -21.4034 -21.4034 -21.3719 -21.3719
   -21.3610 -21.3610 -21.3610 -21.3592 -21.3592 -21.3576 -21.3576 -21.3576
   -21.3448 -21.3448 -21.3448 -21.3325 -21.3325 -21.3325 -21.3304 -21.3304
   -21.3304 -21.3274 -21.3274 -21.3098 -21.3097 -21.2948 -21.2948 -21.2948
   -21.2842 -21.2842 -21.2797 -21.2796 -21.2796 -21.2791 -21.2791 -21.2791
   -21.2706 -21.2706 -21.2635 -21.2635 -21.2635 -21.2574 -21.2574 -21.2574
   -21.2571 -21.2571 -21.2571 -21.2547 -21.2506 -21.2399 -21.2399 -21.2399
   -21.2175 -21.2152 -21.1711 -21.1711 -21.1711 -21.1700 -21.1699 -21.1699
   -21.1290 -21.1290 -21.1290 -21.1263 -21.1263 -21.1263 -21.1129 -21.1129
   -21.1129 -21.1095 -21.1095 -21.1095 -21.0941 -21.0941 -21.0930 -21.0930
   -21.0805 -21.0805 -21.0805 -21.0796 -21.0796 -21.0796 -21.0626 -21.0626
   -21.0605 -21.0605 -21.0591 -21.0591 -21.0591 -21.0575 -21.0575 -21.0575
   -21.0558 -21.0558 -21.0557 -21.0556 -21.0556 -21.0554 -21.0554 -21.0553
   -21.0541 -21.0541 -21.0277 -21.0277 -21.0277 -21.0263 -21.0263 -21.0263
   -20.9941 -20.9940 -20.9940 -20.9934 -20.9934 -20.9933 -20.9871 -20.9870
   -20.9870 -20.9852 -20.9852 -20.9852 -20.9846 -20.9846 -20.9821 -20.9821
   -20.9447 -20.9433 -20.9335 -20.9335 -20.9334 -20.9327 -20.9327 -20.9326
    -9.0982  -8.4434  -7.7519  -7.0919  -7.0919  -7.0919  -6.6421  -6.6421
    -6.6421  -6.0871  -6.0871  -6.0871  -5.2599  -5.2599  -5.2599  -4.8667
    -4.5596  -4.4271  -4.4271  -4.4271  -4.1072  -4.1072  -4.1072  -3.0026
    -3.0026  -3.0026  -2.9817  -2.9817  -2.9816  -2.6024  -0.6874   0.0088
     0.0088   0.0089   0.3650   0.3650   0.3650   0.5371   0.5371   0.5371
     1.1510   1.1511   1.1511   1.2661   1.6877   1.6877   1.6877   1.7989
     1.7989   1.7989   2.1540   2.1540   2.2130   2.2130   2.2130   2.6190
     2.6190   2.6190   2.6720   2.6720   2.8760   2.8760   2.8760   3.0939
     3.1198   3.1198   3.6319   4.1134   4.1173   4.3501   4.3501   4.3501
     4.7843   4.7843   4.7843   4.8865   4.8865   4.8865   5.4702   5.4702
     5.4702   5.5515   5.5515   5.5515   5.5545   5.5546   5.5546   5.8680
     5.8680   6.1914   6.1914   6.2535   6.8730   6.8730   7.0622   7.0622
     7.0622   7.1229   7.4533   7.4533   7.5547   7.5547   7.5572   7.5573
     7.5573   7.9775   7.9775   7.9775   8.5629

     the Fermi energy is     3.0746 ev

!    total energy              =   -5713.75221895 Ry
     estimated scf accuracy    <       0.00000049 Ry
     smearing contrib. (-TS)   =      -0.01764368 Ry
     internal energy E=F+TS    =   -5713.73457528 Ry

     The total energy is F=E-TS. E is the sum of the following terms:
     one-electron contribution =  -17131.05360421 Ry
     hartree contribution      =    8772.92803172 Ry
     xc contribution           =   -1394.23756723 Ry
     ewald contribution        =    4038.62856444 Ry

     convergence has been achieved in  12 iterations

     Forces acting on atoms (cartesian axes, Ry/au):

     atom    1 type  1   force =     0.00000736    0.00000425   -0.01931189
     atom    2 type  1   force =     0.00000175    0.00000101   -0.02097639
     atom    3 type  1   force =    -0.00000768   -0.00000443   -0.03478324
     atom    4 type  1   force =    -0.00001528   -0.00000882    0.03597406
     atom    5 type  1   force =     0.00002023    0.00001168   -0.03594765
     atom    6 type  1   force =     0.00001244    0.00000718    0.03492135
     atom    7 type  1   force =    -0.00000015   -0.00000009    0.02068479
     atom    8 type  1   force =    -0.00000138   -0.00000080    0.01943752
     atom    9 type  1   force =     0.00000944   -0.00001223   -0.01930138
     atom   10 type  1   force =     0.00000538   -0.00000295   -0.02097782
     atom   11 type  1   force =    -0.00001630    0.00001819   -0.03478298
     atom   12 type  1   force =    -0.00001396    0.00002390    0.03597010
     atom   13 type  1   force =     0.00000541   -0.00002529   -0.03595019
     atom   14 type  1   force =     0.00000891   -0.00001808    0.03492173
     atom   15 type  1   force =     0.00000513   -0.00000184    0.02068287
     atom   16 type  1   force =     0.00001713   -0.00001034    0.01944077
     atom   17 type  1   force =    -0.00000587    0.00001429   -0.01930138
     atom   18 type  1   force =     0.00000014    0.00000613   -0.02097782
     atom   19 type  1   force =     0.00000760   -0.00002321   -0.03478298
     atom   20 type  1   force =     0.00001372   -0.00002404    0.03597010
     atom   21 type  1   force =    -0.00001920    0.00001734   -0.03595019
     atom   22 type  1   force =    -0.00001120    0.00001675    0.03492173
     atom   23 type  1   force =     0.00000097    0.00000536    0.02068287
     atom   24 type  1   force =    -0.00000039    0.00002001    0.01944077
     atom   25 type  1   force =    -0.00001163   -0.00000671   -0.01930557
     atom   26 type  1   force =    -0.00000559   -0.00000323   -0.02098256
     atom   27 type  1   force =     0.00001743    0.00001007   -0.03478296
     atom   28 type  1   force =     0.00001598    0.00000922    0.03597501
     atom   29 type  1   force =    -0.00000481   -0.00000278   -0.03594995
     atom   30 type  1   force =    -0.00000932   -0.00000538    0.03492245
     atom   31 type  1   force =    -0.00000707   -0.00000408    0.02068108
     atom   32 type  1   force =    -0.00001916   -0.00001106    0.01943774

     Total force =     0.162901     Total SCF correction =     0.001029

     BFGS Geometry Optimization
     Energy error            =      0.0E+00 Ry
     Gradient error          =      3.6E-02 Ry/Bohr

     number of scf cycles    =   1
     number of bfgs steps    =   0

     energy             new  =   -5713.7522189549 Ry

     new trust radius        =       0.0359750100 bohr
     new conv_thr            =       0.0000010000 Ry


ATOMIC_POSITIONS (angstrom)
Ge            1.0031864910        0.5791896871        7.4470646172
Ge            1.0031831167        0.5791879158        4.9888997742
Ge            3.0095433236        1.7375599143       10.7152562355
Ge            3.0095388929        1.7375575331        8.2954153542
Ge            5.0159228812        2.8959432617       13.9910187565
Ge            5.0159183492        2.8959408220       11.5712369895
Ge            1.0031841393        0.5791876218       17.2973660582
Ge            1.0031830838        0.5791871892       14.8394220033
Ge            3.0095524775        4.0543051999        7.4470701771
Ge            3.0095499256        4.0543100547        4.9888990173
Ge            5.0159036445        5.2126961171       10.7152563729
Ge            5.0159044806        5.2126990798        8.2954132623
Ge            7.0222799260        6.3710479273       13.9910174123
Ge            7.0222813695        6.3710516904       11.5712371913
Ge            3.0095518222        4.0543109270       17.2973650421
Ge            3.0095577653        4.0543063699       14.8394237226
Ge            5.0159073459        0.5791949993        7.4470701771
Ge            5.0159101211        0.5791906272        4.9888990173
Ge            7.0222792638        1.7375499749       10.7152563729
Ge            7.0222820944        1.7375494830        8.2954132623
Ge            9.0286298712        2.8959462538       13.9910174123
Ge            9.0286336986        2.8959458876       11.5712371913
Ge            5.0159125908        0.5791905069       17.2973650421
Ge            5.0159114627        0.5791981977       14.8394237226
Ge            7.0222691874        4.0543081190        7.4470679584
Ge            7.0222719759        4.0543099059        4.9888965086
Ge            9.0286493545        5.2126918183       10.7152563844
Ge            9.0286481778        5.2126913158        8.2954158567
Ge           11.0350023727        6.3710598432       13.9910175393
Ge           11.0349995782        6.3710584067       11.5712375728
Ge            7.0222732197        4.0543097395       17.2973640967
Ge            7.0222664165        4.0543059885       14.8394221223



     Writing output data file ./out/ge.save/
     NEW-OLD atomic charge density approx. for the potential

     negative rho (up, down):  1.980E-07 0.000E+00

     total cpu time spent up to now is       10.1 secs

     Self-consistent Calculation

     iteration #  1     ecut=    60.00 Ry     beta= 0.40
     Davidson diagonalization with overlap
     ethr =  1.00E-06,  avg # of iterations =  7.0

     total cpu time spent up to now is       11.8 secs

     total energy              =   -5713.77002965 Ry
     estimated scf accuracy    <       0.01696677 Ry

     iteration #  2     ecut=    60.00 Ry     beta= 0.40
     Davidson diagonalization with overlap
     ethr =  3.79E-06,  avg # of iterations = 11.0

     total cpu time spent up to now is       12.9 secs

     total energy              =   -5713.73717105 Ry
     estimated scf accuracy    <       0.78731495 Ry

     iteration #  3     ecut=    60.00 Ry     beta= 0.40
     Davidson diagonalization with overlap
     ethr =  3.79E-06,  avg # of iterations =  7.0

     total cpu time spent up to now is       13.8 secs

     total energy              =   -5713.77747756 Ry
     estimated scf accuracy    <       0.00519286 Ry

     iteration #  4     ecut=    60.00 Ry     beta= 0.40
     Davidson diagonalization with overlap
     ethr =  1.16E-06,  avg # of iterations =  2.0

     total cpu time spent up to now is       14.5 secs

     total energy              =   -5713.77673332 Ry
     estimated scf accuracy    <       0.02926475 Ry

     iteration #  5     ecut=    60.00 Ry     beta= 0.40
     Davidson diagonalization with overlap
     ethr =  1.16E-06,  avg # of iterations =  2.0

     total cpu time spent up to now is       15.1 secs

     total energy              =   -5713.77764415 Ry
     estimated scf accuracy    <       0.00324958 Ry

     iteration #  6     ecut=    60.00 Ry     beta= 0.40
     Davidson diagonalization with overlap
     ethr =  7.25E-07,  avg # of iterations =  1.0

     total cpu time spent up to now is       15.6 secs

     total energy              =   -5713.77779994 Ry
     estimated scf accuracy    <       0.00018426 Ry

     iteration #  7     ecut=    60.00 Ry     beta= 0.40
     Davidson diagonalization with overlap
     ethr =  4.11E-08,  avg # of iterations =  2.0

     total cpu time spent up to now is       16.3 secs

     total energy              =   -5713.77781246 Ry
     estimated scf accuracy    <       0.00000661 Ry

     iteration #  8     ecut=    60.00 Ry     beta= 0.40
     Davidson diagonalization with overlap
     ethr =  1.48E-09,  avg # of iterations =  4.0

     total cpu time spent up to now is       17.0 secs

     total energy              =   -5713.77781319 Ry
     estimated scf accuracy    <       0.00000626 Ry

     iteration #  9     ecut=    60.00 Ry     beta= 0.40
     Davidson diagonalization with overlap
     ethr =  1.40E-09,  avg # of iterations =  2.0

     total cpu time spent up to now is       17.6 secs

     End of self-consistent calculation

          k = 0.0000 0.0000 0.0000 ( 32941 PWs)   bands (ev):

   -21.6481 -21.6480 -21.6480 -21.6394 -21.6394 -21.6367 -21.6367 -21.6367
   -21.6278 -21.6278 -21.6278 -21.5888 -21.5853 -21.5724 -21.5724 -21.5623
   -21.5623 -21.5623 -21.5200 -21.5200 -21.5200 -21.4834 -21.4834 -21.4834
   -21.4759 -21.4759 -21.4759 -21.4699 -21.4699 -21.4699 -21.4273 -21.4273
   -21.4117 -21.4117 -21.4117 -21.4049 -21.4049 -21.4009 -21.4009 -21.4009
   -21.3999 -21.3999 -21.3999 -21.3798 -21.3798 -21.3701 -21.3701 -21.3701
   -21.3640 -21.3640 -21.3639 -21.3639 -21.3638 -21.3457 -21.3457 -21.3457
   -21.3308 -21.3308 -21.3308 -21.3241 -21.3241 -21.3192 -21.3192 -21.3192
   -21.3186 -21.3186 -21.3015 -21.3015 -21.3015 -21.2947 -21.2947 -21.2947
   -21.2909 -21.2909 -21.2909 -21.2826 -21.2826 -21.2826 -21.2786 -21.2783
   -21.2516 -21.2496 -21.2037 -21.2037 -21.2037 -21.2028 -21.2028 -21.2027
   -21.1778 -21.1778 -21.1778 -21.1757 -21.1757 -21.1757 -21.1580 -21.1580
   -21.1580 -21.1560 -21.1559 -21.1559 -21.1420 -21.1420 -21.1404 -21.1404
   -21.1337 -21.1337 -21.1337 -21.1319 -21.1319 -21.1319 -21.1051 -21.1051
   -21.1035 -21.1035 -21.0810 -21.0810 -21.0810 -21.0796 -21.0796 -21.0796
   -21.0444 -21.0444 -21.0443 -21.0438 -21.0438 -21.0434 -21.0434 -21.0434
   -21.0424 -21.0424 -21.0389 -21.0389 -21.0389 -21.0378 -21.0378 -21.0378
   -20.9803 -20.9803 -20.9803 -20.9796 -20.9796 -20.9795 -20.9762 -20.9762
   -20.9759 -20.9759 -20.9759 -20.9751 -20.9751 -20.9750 -20.9718 -20.9718
   -20.9369 -20.9352 -20.9287 -20.9287 -20.9286 -20.9281 -20.9280 -20.9280
    -9.1521  -8.4667  -7.7490  -7.1681  -7.1681  -7.1681  -6.6911  -6.6911
    -6.6911  -6.0937  -6.0937  -6.0937  -5.3160  -5.3160  -5.3160  -4.9086
    -4.5641  -4.4276  -4.4276  -4.4276  -4.1099  -4.1099  -4.1099  -3.0080
    -3.0080  -3.0080  -2.9828  -2.9828  -2.9828  -2.7313  -0.7836  -0.0826
    -0.0826  -0.0826   0.2627   0.2627   0.2627   0.5052   0.5053   0.5053
     1.1449   1.1449   1.1449   1.2169   1.7044   1.7044   1.7044   1.7575
     1.7575   1.7575   2.1137   2.1137   2.1879   2.1879   2.1879   2.6173
     2.6173   2.6173   2.6590   2.6590   2.8367   2.8367   2.8367   2.9937
     3.1338   3.1338   3.6578   4.0992   4.1369   4.3399   4.3399   4.3399
     4.7339   4.7339   4.7339   4.8726   4.8726   4.8726   5.4633   5.4633
     5.4633   5.4850   5.4850   5.4850   5.5595   5.5595   5.5595   5.8111
     5.8111   6.1846   6.1846   6.2945   6.8401   6.8401   7.0969   7.1215
     7.1215   7.1215   7.4371   7.4371   7.5030   7.5030   7.5031   7.5371
     7.5371   7.9566   7.9566   7.9566   7.9957

     the Fermi energy is     3.0437 ev

!    total energy              =   -5713.77781383 Ry
     estimated scf accuracy    <       0.00000038 Ry
     smearing contrib. (-TS)   =      -0.01388265 Ry
     internal energy E=F+TS    =   -5713.76393118 Ry

     The total energy is F=E-TS. E is the sum of the following terms:
     one-electron contribution =  -17093.30975960 Ry
     hartree contribution      =    8753.49803605 Ry
     xc contribution           =   -1394.20015194 Ry
     ewald contribution        =    4020.24794431 Ry

     convergence has been achieved in   9 iterations

     Forces acting on atoms (cartesian axes, Ry/au):

     atom    1 type  1   force =     0.00000853    0.00000492   -0.02156970
     atom    2 type  1   force =     0.00000270    0.00000156   -0.02165337
     atom    3 type  1   force =    -0.00000399   -0.00000230   -0.02966578
     atom    4 type  1   force =    -0.00000931   -0.00000538    0.03172237
     atom    5 type  1   force =    -0.00000270   -0.00000156   -0.03165501
     atom    6 type  1   force =     0.00000634    0.00000366    0.02944013
     atom    7 type  1   force =     0.00000271    0.00000157    0.02176155
     atom    8 type  1   force =     0.00000386    0.00000223    0.02161217
     atom    9 type  1   force =     0.00000954   -0.00001419   -0.02156132
     atom   10 type  1   force =     0.00000351   -0.00000496   -0.02165470
     atom   11 type  1   force =    -0.00001067    0.00001326   -0.02967133
     atom   12 type  1   force =    -0.00000506    0.00001381    0.03172685
     atom   13 type  1   force =     0.00001284   -0.00000599   -0.03165622
     atom   14 type  1   force =     0.00000464   -0.00001013    0.02944064
     atom   15 type  1   force =     0.00000384   -0.00000611    0.02175864
     atom   16 type  1   force =     0.00001406   -0.00001354    0.02161841
     atom   17 type  1   force =    -0.00000752    0.00001536   -0.02156132
     atom   18 type  1   force =    -0.00000254    0.00000552   -0.02165470
     atom   19 type  1   force =     0.00000615   -0.00001587   -0.02967133
     atom   20 type  1   force =     0.00000943   -0.00001129    0.03172685
     atom   21 type  1   force =     0.00000123    0.00001411   -0.03165622
     atom   22 type  1   force =    -0.00000645    0.00000909    0.02944064
     atom   23 type  1   force =    -0.00000337    0.00000638    0.02175864
     atom   24 type  1   force =    -0.00000470    0.00001895    0.02161841
     atom   25 type  1   force =    -0.00000984   -0.00000568   -0.02156414
     atom   26 type  1   force =    -0.00000376   -0.00000217   -0.02165305
     atom   27 type  1   force =     0.00001015    0.00000586   -0.02967025
     atom   28 type  1   force =     0.00000594    0.00000343    0.03172021
     atom   29 type  1   force =    -0.00001298   -0.00000749   -0.03165126
     atom   30 type  1   force =    -0.00000573   -0.00000331    0.02944272
     atom   31 type  1   force =    -0.00000338   -0.00000195    0.02176283
     atom   32 type  1   force =    -0.00001347   -0.00000778    0.02161862

     Total force =     0.150069     Total SCF correction =     0.003662
     Energy error            =      2.6E-02 Ry
     Gradient error          =      3.2E-02 Ry/Bohr

     number of scf cycles    =   2
     number of bfgs steps    =   1

     energy             old  =   -5713.7522189549 Ry
     energy             new  =   -5713.7778138308 Ry

     CASE: energy            _new < energy            _old


     WARNING: bfgs curvature condition failed, Theta= 0.873
     new trust radius        =       0.0395725110 bohr
     new conv_thr            =       0.0000003173 Ry


ATOMIC_POSITIONS (angstrom)
Ge            1.0031917148        0.5791927030        7.4337301497
Ge            1.0031846672        0.5791888110        4.9752346772
Ge            3.0095401365        1.7375580742       10.6954739978
Ge            3.0095319163        1.7375535051        8.3163548494
Ge            5.0159251852        2.8959445919       13.9701149563
Ge            5.0159234564        2.8959437706       11.5909394082
Ge            1.0031853640        0.5791883289       17.3110298774
Ge            1.0031846201        0.5791880762       14.8527980968
Ge            3.0095585325        4.0542965115        7.4337414192
Ge            3.0095524868        4.0543072516        4.9752330530
Ge            5.0158958635        5.2127054211       10.6954716222
Ge            5.0158996988        5.2127096396        8.3163541301
Ge            7.0222867961        6.3710407264       13.9701126105
Ge            7.0222850740        6.3710438493       11.5909399124
Ge            3.0095544929        4.0543077888       17.3110271831
Ge            3.0095672528        4.0542983106       14.8528032627
Ge            5.0159028490        0.5792045872        7.4337414192
Ge            5.0159089741        0.5791942467        4.9752330530
Ge            7.0222834308        1.7375385843       10.6954716222
Ge            7.0222888486        1.7375400618        8.3163541301
Ge            9.0286270701        2.8959558039       13.9701126105
Ge            9.0286287604        2.8959530163       11.5909399124
Ge            5.0159112084        0.5791943889       17.3110271831
Ge            5.0159092268        0.5792104438       14.8528032627
Ge            7.0222626121        4.0543043227        7.4337371636
Ge            7.0222692608        4.0543083383        4.9752304730
Ge            9.0286570921        5.2126962856       10.6954721337
Ge            9.0286537191        5.2126945151        8.3163545219
Ge           11.0349955453        6.3710559015       13.9701150640
Ge           11.0349953000        6.3710559368       11.5909413801
Ge            7.0222704202        4.0543081232       17.3110278566
Ge            7.0222568443        4.0543004620       14.8528012310



     Writing output data file ./out/ge.save/
     NEW-OLD atomic charge density approx. for the potential

     negative rho (up, down):  2.541E-07 0.000E+00

     total cpu time spent up to now is       17.9 secs

     Self-consistent Calculation

     iteration #  1     ecut=    60.00 Ry     beta= 0.40
     Davidson diagonalization with overlap
     ethr =  1.00E-06,  avg # of iterations =  7.0

     negative rho (up, down):  2.045E-08 0.000E+00

     total cpu time spent up to now is       19.7 secs

     total energy              =   -5713.80056121 Ry
     estimated scf accuracy    <       0.00621171 Ry

     iteration #  2     ecut=    60.00 Ry     beta= 0.40
     Davidson diagonalization with overlap
     ethr =  1.39E-06,  avg # of iterations =  6.0

     negative rho (up, down):  1.202E-08 0.000E+00

     total cpu time spent up to now is       20.5 secs

     total energy              =   -5713.79461824 Ry
     estimated scf accuracy    <       0.12046110 Ry

     iteration #  3     ecut=    60.00 Ry     beta= 0.40
     Davidson diagonalization with overlap
     ethr =  1.39E-06,  avg # of iterations =  6.0

     total cpu time spent up to now is       21.4 secs

     total energy              =   -5713.80258543 Ry
     estimated scf accuracy    <       0.00281236 Ry

     iteration #  4     ecut=    60.00 Ry     beta= 0.40
     Davidson diagonalization with overlap
     ethr =  6.28E-07,  avg # of iterations =  2.0

     total cpu time spent up to now is       22.0 secs

     total energy              =   -5713.80216495 Ry
     estimated scf accuracy    <       0.01482750 Ry

     iteration #  5     ecut=    60.00 Ry     beta= 0.40
     Davidson diagonalization with overlap
     ethr =  6.28E-07,  avg # of iterations =  2.0

     total cpu time spent up to now is       22.6 secs

     total energy              =   -5713.80267172 Ry
     estimated scf accuracy    <       0.00482249 Ry

     iteration #  6     ecut=    60.00 Ry     beta= 0.40
     Davidson diagonalization with overlap
     ethr =  6.28E-07,  avg # of iterations =  1.0

     total cpu time spent up to now is       23.2 secs

     total energy              =   -5713.80286557 Ry
     estimated scf accuracy    <       0.00003887 Ry

     iteration #  7     ecut=    60.00 Ry     beta= 0.40
     Davidson diagonalization with overlap
     ethr =  8.68E-09,  avg # of iterations =  4.0

     total cpu time spent up to now is       23.9 secs

     total energy              =   -5713.80287110 Ry
     estimated scf accuracy    <       0.00000428 Ry

     iteration #  8     ecut=    60.00 Ry     beta= 0.40
     Davidson diagonalization with overlap
     ethr =  9.55E-10,  avg # of iterations =  2.0

     total cpu time spent up to now is       24.5 secs

     total energy              =   -5713.80287149 Ry
     estimated scf accuracy    <       0.00000110 Ry

     iteration #  9     ecut=    60.00 Ry     beta= 0.40
     Davidson diagonalization with overlap
     ethr =  2.44E-10,  avg # of iterations =  2.0

     total cpu time spent up to now is       25.2 secs

     total energy              =   -5713.80287173 Ry
     estimated scf accuracy    <       0.00000033 Ry

     iteration # 10     ecut=    60.00 Ry     beta= 0.40
     Davidson diagonalization with overlap
     ethr =  7.26E-11,  avg # of iterations =  2.0

     total cpu time spent up to now is       25.8 secs

     End of self-consistent calculation

          k = 0.0000 0.0000 0.0000 ( 32941 PWs)   bands (ev):

   -21.6878 -21.6878 -21.6878 -21.6818 -21.6818 -21.6812 -21.6812 -21.6812
   -21.6734 -21.6734 -21.6734 -21.6436 -21.6373 -21.6152 -21.6152 -21.6074
   -21.6074 -21.6074 -21.5617 -21.5617 -21.5617 -21.5332 -21.5332 -21.5332
   -21.5218 -21.5218 -21.5218 -21.5181 -21.5181 -21.5181 -21.4701 -21.4701
   -21.4629 -21.4629 -21.4629 -21.4391 -21.4391 -21.4224 -21.4224 -21.4224
   -21.4210 -21.4210 -21.4210 -21.4066 -21.4066 -21.3968 -21.3968 -21.3955
   -21.3955 -21.3955 -21.3853 -21.3853 -21.3853 -21.3795 -21.3795 -21.3795
   -21.3480 -21.3480 -21.3480 -21.3450 -21.3450 -21.3419 -21.3419 -21.3399
   -21.3399 -21.3399 -21.3189 -21.3189 -21.3189 -21.3140 -21.3140 -21.3140
   -21.3057 -21.3057 -21.3057 -21.2999 -21.2999 -21.2999 -21.2896 -21.2854
   -21.2773 -21.2754 -21.2281 -21.2281 -21.2281 -21.2268 -21.2268 -21.2268
   -21.2136 -21.2136 -21.2136 -21.2119 -21.2119 -21.2119 -21.1915 -21.1915
   -21.1915 -21.1899 -21.1899 -21.1899 -21.1761 -21.1761 -21.1745 -21.1745
   -21.1686 -21.1686 -21.1686 -21.1667 -21.1667 -21.1667 -21.1358 -21.1358
   -21.1345 -21.1345 -21.1169 -21.1169 -21.1168 -21.1152 -21.1152 -21.1152
   -21.0347 -21.0347 -21.0347 -21.0346 -21.0346 -21.0346 -21.0345 -21.0345
   -21.0333 -21.0333 -21.0297 -21.0297 -21.0297 -21.0295 -21.0295 -21.0295
   -20.9706 -20.9706 -20.9706 -20.9697 -20.9697 -20.9697 -20.9678 -20.9678
   -20.9666 -20.9666 -20.9666 -20.9657 -20.9656 -20.9656 -20.9630 -20.9630
   -20.9304 -20.9291 -20.9236 -20.9235 -20.9235 -20.9234 -20.9233 -20.9233
    -9.1868  -8.4699  -7.7190  -7.2304  -7.2304  -7.2304  -6.7282  -6.7281
    -6.7281  -6.0791  -6.0791  -6.0791  -5.3609  -5.3609  -5.3609  -4.9600
    -4.5705  -4.4069  -4.4069  -4.4069  -4.0826  -4.0826  -4.0826  -3.0095
    -3.0095  -3.0095  -2.9765  -2.9765  -2.9765  -2.8569  -0.8840  -0.1595
    -0.1595  -0.1595   0.1647   0.1647   0.1647   0.4983   0.4983   0.4983
     1.1653   1.1653   1.1653   1.1683   1.7170   1.7170   1.7170   1.7530
     1.7530   1.7530   2.0966   2.0966   2.1595   2.1595   2.1595   2.6147
     2.6147   2.6147   2.6708   2.6709   2.7994   2.7994   2.7994   2.8875
     3.1790   3.1790   3.7155   4.1011   4.1864   4.3566   4.3566   4.3566
     4.6941   4.6941   4.6941   4.8790   4.8790   4.8790   5.4219   5.4219
     5.4219   5.4508   5.4508   5.4508   5.5615   5.5615   5.5615   5.7561
     5.7561   6.1828   6.1828   6.3493   6.8289   6.8289   7.0622   7.1991
     7.1991   7.1991   7.4354   7.4354   7.4499   7.4499   7.4500   7.5326
     7.5326   7.8397   7.9384   7.9384   7.9384

     the Fermi energy is     3.0241 ev

!    total energy              =   -5713.80287174 Ry
     estimated scf accuracy    <       0.00000004 Ry
     smearing contrib. (-TS)   =      -0.00626760 Ry
     internal energy E=F+TS    =   -5713.79660414 Ry

     The total energy is F=E-TS. E is the sum of the following terms:
     one-electron contribution =  -17040.54532760 Ry
     hartree contribution      =    8726.69276585 Ry
     xc contribution           =   -1394.15980170 Ry
     ewald contribution        =    3994.21575931 Ry

     convergence has been achieved in  10 iterations

     Forces acting on atoms (cartesian axes, Ry/au):

     atom    1 type  1   force =     0.00000685    0.00000395   -0.02148393
     atom    2 type  1   force =     0.00000336    0.00000194   -0.02204739
     atom    3 type  1   force =    -0.00000437   -0.00000252   -0.01877621
     atom    4 type  1   force =    -0.00000697   -0.00000402    0.02202358
     atom    5 type  1   force =     0.00000750    0.00000433   -0.02199975
     atom    6 type  1   force =     0.00000561    0.00000324    0.01873643
     atom    7 type  1   force =     0.00000299    0.00000173    0.02212492
     atom    8 type  1   force =     0.00000816    0.00000471    0.02140996
     atom    9 type  1   force =     0.00000651   -0.00001246   -0.02148388
     atom   10 type  1   force =     0.00000363   -0.00000635   -0.02204195
     atom   11 type  1   force =    -0.00000471    0.00000900   -0.01877843
     atom   12 type  1   force =    -0.00000456    0.00001183    0.02202151
     atom   13 type  1   force =     0.00000634   -0.00001209   -0.02199336
     atom   14 type  1   force =     0.00000657   -0.00001061    0.01874204
     atom   15 type  1   force =     0.00000466   -0.00000637    0.02212561
     atom   16 type  1   force =     0.00000308   -0.00001159    0.02141065
     atom   17 type  1   force =    -0.00000754    0.00001187   -0.02148388
     atom   18 type  1   force =    -0.00000369    0.00000632   -0.02204195
     atom   19 type  1   force =     0.00000544   -0.00000858   -0.01877843
     atom   20 type  1   force =     0.00000796   -0.00000986    0.02202151
     atom   21 type  1   force =    -0.00000730    0.00001154   -0.02199336
     atom   22 type  1   force =    -0.00000590    0.00001100    0.01874204
     atom   23 type  1   force =    -0.00000319    0.00000722    0.02212561
     atom   24 type  1   force =    -0.00000850    0.00000847    0.02141065
     atom   25 type  1   force =    -0.00000536   -0.00000310   -0.02148017
     atom   26 type  1   force =    -0.00000358   -0.00000207   -0.02204330
     atom   27 type  1   force =     0.00000411    0.00000237   -0.01878156
     atom   28 type  1   force =     0.00000415    0.00000240    0.02201925
     atom   29 type  1   force =    -0.00000653   -0.00000377   -0.02199302
     atom   30 type  1   force =    -0.00000652   -0.00000376    0.01874473
     atom   31 type  1   force =    -0.00000480   -0.00000277    0.02212868
     atom   32 type  1   force =    -0.00000344   -0.00000199    0.02141342

     Total force =     0.119466     Total SCF correction =     0.001064
     Energy error            =      2.5E-02 Ry
     Gradient error          =      2.2E-02 Ry/Bohr

     number of scf cycles    =   3
     number of bfgs steps    =   2

     energy             old  =   -5713.7778138308 Ry
     energy             new  =   -5713.8028717439 Ry

     CASE: energy            _new < energy            _old

     new trust radius        =       0.0593587665 bohr
     new conv_thr            =       0.0000002213 Ry


ATOMIC_POSITIONS (angstrom)
Ge            1.0032001975        0.5791976005        7.4078643014
Ge            1.0031883197        0.5791909197        4.9481865707
Ge            3.0095333970        1.7375541832       10.6674725898
Ge            3.0095204005        1.7375468564        8.3477661531
Ge            5.0159406917        2.8959535446       13.9387285445
Ge            5.0159329282        2.8959492392       11.6189834385
Ge            1.0031879213        0.5791898053       17.3380298592
Ge            1.0031916969        0.5791921620       14.8786326930
Ge            3.0095673436        4.0542813347        7.4078785207
Ge            3.0095576805        4.0543004673        4.9481899798
Ge            5.0158863818        5.2127195443       10.6674688349
Ge            5.0158905216        5.2127286728        8.3477612800
Ge            7.0222934742        6.3710198775       13.9387317332
Ge            7.0222943869        6.3710277571       11.6189895975
Ge            3.0095605730        4.0543015573       17.3380275101
Ge            3.0095749898        4.0542846307       14.8786389632
Ge            5.0158941110        0.5792198063        7.4078785207
Ge            5.0159056956        0.5792021368        4.9481899798
Ge            7.0222909210        1.7375233114       10.6674688349
Ge            7.0223007433        1.7375225976        8.3477612800
Ge            9.0286123535        2.8959720117       13.9387317332
Ge            9.0286194806        2.8959691276       11.6189895975
Ge            5.0159088518        0.5792027701       17.3380275101
Ge            5.0159012482        0.5792239841       14.8786389632
Ge            7.0222541495        4.0542994368        7.4078767218
Ge            7.0222640716        4.0543053423        4.9481840434
Ge            9.0286664812        5.2127017064       10.6674661018
Ge            9.0286631473        5.2126999585        8.3477621627
Ge           11.0349889303        6.3710520823       13.9387339673
Ge           11.0349860256        6.3710505822       11.6189937305
Ge            7.0222634056        4.0543040733       17.3380299978
Ge            7.0222478999        4.0542952979       14.8786385091



     Writing output data file ./out/ge.save/
     NEW-OLD atomic charge density approx. for the potential

     negative rho (up, down):  1.549E-06 0.000E+00

     total cpu time spent up to now is       26.1 secs

     Self-consistent Calculation

     iteration #  1     ecut=    60.00 Ry     beta= 0.40
     Davidson diagonalization with overlap
     ethr =  1.00E-06,  avg # of iterations =  9.0

     negative rho (up, down):  1.207E-07 0.000E+00

     total cpu time spent up to now is       28.2 secs

     total energy              =   -5713.82309073 Ry
     estimated scf accuracy    <       0.00463370 Ry

     iteration #  2     ecut=    60.00 Ry     beta= 0.40
     Davidson diagonalization with overlap
     ethr =  1.03E-06,  avg # of iterations =  5.0

     negative rho (up, down):  8.254E-08 0.000E+00

     total cpu time spent up to now is       29.0 secs

     total energy              =   -5713.82091469 Ry
     estimated scf accuracy    <       0.04798894 Ry

     iteration #  3     ecut=    60.00 Ry     beta= 0.40
     Davidson diagonalization with overlap
     ethr =  1.03E-06,  avg # of iterations =  5.0

     total cpu time spent up to now is       29.8 secs

     total energy              =   -5713.82447895 Ry
     estimated scf accuracy    <       0.00125384 Ry

     iteration #  4     ecut=    60.00 Ry     beta= 0.40
     Davidson diagonalization with overlap
     ethr =  2.80E-07,  avg # of iterations =  3.0

     total cpu time spent up to now is       30.5 secs

     total energy              =   -5713.82374417 Ry
     estimated scf accuracy    <       0.02780371 Ry

     iteration #  5     ecut=    60.00 Ry     beta= 0.40
     Davidson diagonalization with overlap
     ethr =  2.80E-07,  avg # of iterations =  3.0

     total cpu time spent up to now is       31.1 secs

     total energy              =   -5713.82467971 Ry
     estimated scf accuracy    <       0.00081004 Ry

     iteration #  6     ecut=    60.00 Ry     beta= 0.40
     Davidson diagonalization with overlap
     ethr =  1.81E-07,  avg # of iterations =  2.0

     total cpu time spent up to now is       31.7 secs

     total energy              =   -5713.82475548 Ry
     estimated scf accuracy    <       0.00003963 Ry

     iteration #  7     ecut=    60.00 Ry     beta= 0.40
     Davidson diagonalization with overlap
     ethr =  8.84E-09,  avg # of iterations =  2.0

     total cpu time spent up to now is       32.4 secs

     total energy              =   -5713.82475967 Ry
     estimated scf accuracy    <       0.00000248 Ry

     iteration #  8     ecut=    60.00 Ry     beta= 0.40
     Davidson diagonalization with overlap
     ethr =  5.54E-10,  avg # of iterations =  4.0

     total cpu time spent up to now is       33.1 secs

     total energy              =   -5713.82475993 Ry
     estimated scf accuracy    <       0.00000092 Ry

     iteration #  9     ecut=    60.00 Ry     beta= 0.40
     Davidson diagonalization with overlap
     ethr =  2.05E-10,  avg # of iterations =  3.0

     total cpu time spent up to now is       33.8 secs

     End of self-consistent calculation

          k = 0.0000 0.0000 0.0000 ( 32941 PWs)   bands (ev):

   -21.6846 -21.6846 -21.6846 -21.6780 -21.6780 -21.6780 -21.6662 -21.6644
   -21.6644 -21.6644 -21.6640 -21.6640 -21.6490 -21.6004 -21.6004 -21.5873
   -21.5873 -21.5873 -21.5499 -21.5499 -21.5499 -21.5388 -21.5388 -21.5388
   -21.5226 -21.5226 -21.5226 -21.5131 -21.5131 -21.5131 -21.4612 -21.4612
   -21.4536 -21.4536 -21.4536 -21.4260 -21.4260 -21.3978 -21.3978 -21.3978
   -21.3811 -21.3811 -21.3811 -21.3747 -21.3747 -21.3747 -21.3723 -21.3723
   -21.3659 -21.3659 -21.3436 -21.3436 -21.3436 -21.3396 -21.3396 -21.3396
   -21.3102 -21.3102 -21.3100 -21.3100 -21.3100 -21.3074 -21.3074 -21.3052
   -21.3052 -21.3051 -21.2823 -21.2823 -21.2823 -21.2799 -21.2799 -21.2799
   -21.2703 -21.2675 -21.2651 -21.2651 -21.2651 -21.2605 -21.2605 -21.2605
   -21.2450 -21.2396 -21.2140 -21.2140 -21.2140 -21.2110 -21.2110 -21.2110
   -21.2014 -21.2014 -21.2014 -21.2005 -21.2005 -21.2005 -21.1756 -21.1756
   -21.1756 -21.1735 -21.1735 -21.1735 -21.1589 -21.1589 -21.1569 -21.1569
   -21.1540 -21.1540 -21.1540 -21.1530 -21.1530 -21.1530 -21.1185 -21.1185
   -21.1167 -21.1167 -21.1025 -21.1025 -21.1025 -21.1007 -21.1007 -21.1007
   -21.0503 -21.0503 -21.0503 -21.0495 -21.0495 -21.0490 -21.0490 -21.0490
   -21.0484 -21.0484 -21.0451 -21.0451 -21.0451 -21.0439 -21.0439 -21.0439
   -20.9890 -20.9890 -20.9890 -20.9864 -20.9864 -20.9864 -20.9844 -20.9844
   -20.9844 -20.9840 -20.9840 -20.9818 -20.9818 -20.9818 -20.9797 -20.9797
   -20.9455 -20.9446 -20.9389 -20.9389 -20.9389 -20.9381 -20.9381 -20.9381
    -9.1627  -8.4018  -7.5942  -7.2565  -7.2565  -7.2565  -6.7254  -6.7254
    -6.7254  -5.9913  -5.9913  -5.9912  -5.3762  -5.3762  -5.3762  -5.0414
    -4.5839  -4.3126  -4.3126  -4.3126  -3.9532  -3.9532  -3.9532  -3.0053
    -3.0015  -3.0015  -3.0015  -2.9446  -2.9446  -2.9446  -1.0134  -0.2017
    -0.2017  -0.2017   0.0690   0.0690   0.0690   0.5716   0.5716   0.5716
     1.1096   1.2797   1.2798   1.2798   1.6721   1.6721   1.6721   1.9145
     1.9145   1.9145   2.1207   2.1207   2.1207   2.1528   2.1528   2.6039
     2.6039   2.6039   2.7389   2.7495   2.7495   2.7495   2.7696   2.7696
     3.3340   3.3340   3.8906   4.1543   4.3468   4.4677   4.4677   4.4677
     4.6797   4.6797   4.6797   4.9530   4.9530   4.9530   5.3670   5.3670
     5.3670   5.4190   5.4190   5.4190   5.5518   5.5518   5.5518   5.7103
     5.7103   6.1983   6.1983   6.4556   6.8678   6.8678   6.9893   7.3006
     7.3006   7.3006   7.4421   7.4421   7.4421   7.4824   7.4824   7.5658
     7.5658   7.6637   7.9157   7.9177   7.9180

     the Fermi energy is     3.0614 ev

!    total energy              =   -5713.82476003 Ry
     estimated scf accuracy    <       0.00000020 Ry
     smearing contrib. (-TS)   =      -0.00042627 Ry
     internal energy E=F+TS    =   -5713.82433376 Ry

     The total energy is F=E-TS. E is the sum of the following terms:
     one-electron contribution =  -16921.93418061 Ry
     hartree contribution      =    8667.56268327 Ry
     xc contribution           =   -1394.09778168 Ry
     ewald contribution        =    3934.64494526 Ry

     convergence has been achieved in   9 iterations

     Forces acting on atoms (cartesian axes, Ry/au):

     atom    1 type  1   force =     0.00000276    0.00000159   -0.01312424
     atom    2 type  1   force =     0.00000435    0.00000251   -0.02056629
     atom    3 type  1   force =    -0.00000376   -0.00000217    0.01139667
     atom    4 type  1   force =    -0.00000416   -0.00000240   -0.00731129
     atom    5 type  1   force =     0.00001156    0.00000667    0.00732600
     atom    6 type  1   force =     0.00001188    0.00000686   -0.01146178
     atom    7 type  1   force =     0.00000462    0.00000267    0.02064633
     atom    8 type  1   force =     0.00000537    0.00000310    0.01307905
     atom    9 type  1   force =     0.00000163   -0.00000457   -0.01312572
     atom   10 type  1   force =     0.00000418   -0.00000690   -0.02056114
     atom   11 type  1   force =     0.00000329    0.00000231    0.01139222
     atom   12 type  1   force =    -0.00000207    0.00000666   -0.00731462
     atom   13 type  1   force =     0.00000228   -0.00001577    0.00733614
     atom   14 type  1   force =     0.00000128   -0.00001391   -0.01145353
     atom   15 type  1   force =     0.00000637   -0.00000951    0.02064929
     atom   16 type  1   force =    -0.00000286   -0.00000471    0.01308065
     atom   17 type  1   force =    -0.00000314    0.00000370   -0.01312572
     atom   18 type  1   force =    -0.00000389    0.00000707   -0.02056114
     atom   19 type  1   force =     0.00000364    0.00000170    0.01139222
     atom   20 type  1   force =     0.00000473   -0.00000512   -0.00731462
     atom   21 type  1   force =    -0.00001252    0.00000986    0.00733614
     atom   22 type  1   force =    -0.00001141    0.00000806   -0.01145353
     atom   23 type  1   force =    -0.00000506    0.00001027    0.02064929
     atom   24 type  1   force =    -0.00000551   -0.00000012    0.01308065
     atom   25 type  1   force =    -0.00000075   -0.00000043   -0.01311917
     atom   26 type  1   force =    -0.00000410   -0.00000237   -0.02055794
     atom   27 type  1   force =    -0.00000299   -0.00000172    0.01138512
     atom   28 type  1   force =     0.00000112    0.00000065   -0.00732300
     atom   29 type  1   force =    -0.00000284   -0.00000164    0.00733803
     atom   30 type  1   force =    -0.00000061   -0.00000035   -0.01144798
     atom   31 type  1   force =    -0.00000564   -0.00000326    0.02065193
     atom   32 type  1   force =     0.00000224    0.00000129    0.01308197

     Total force =     0.079013     Total SCF correction =     0.002103
     Energy error            =      2.2E-02 Ry
     Gradient error          =      2.1E-02 Ry/Bohr

     number of scf cycles    =   4
     number of bfgs steps    =   3

     energy             old  =   -5713.8028717440 Ry
     energy             new  =   -5713.8247600262 Ry

     CASE: energy            _new < energy            _old

     new trust radius        =       0.0353410973 bohr
     new conv_thr            =       0.0000002065 Ry


ATOMIC_POSITIONS (angstrom)
Ge            1.0032038667        0.5791997189        7.3942750722
Ge            1.0031915576        0.5791927891        4.9294848678
Ge            3.0095288772        1.7375515737       10.6654950612
Ge            3.0095136848        1.7375429792        8.3526990019
Ge            5.0159542583        2.8959613773       13.9338092238
Ge            5.0159437406        2.8959554817       11.6209722896
Ge            1.0031907671        0.5791914483       17.3566973514
Ge            1.0031949532        0.5791940420       14.8922208791
Ge            3.0095708036        4.0542751656        7.3942907399
Ge            3.0095617952        4.0542952551        4.9294915546
Ge            5.0158842536        5.2127257974       10.6654888542
Ge            5.0158853468        5.2127393902        8.3526904944
Ge            7.0222959650        6.3710025586       13.9338185261
Ge            7.0222978272        6.3710140105       11.6209840375
Ge            3.0095660242        4.0542951149       17.3566965476
Ge            3.0095772629        4.0542789232       14.8922286665
Ge            5.0158904984        0.5792258873        7.3942907399
Ge            5.0159032390        0.5792083063        4.9294915546
Ge            7.0222952722        1.7375183417       10.6654888542
Ge            7.0223074373        1.7375127574        8.3526904944
Ge            9.0285986003        2.8959828283       13.9338185261
Ge            9.0286092958        2.8959789804       11.6209840375
Ge            5.0159059981        0.5792107122       17.3566965476
Ge            5.0158974419        0.5792288064       14.8922286665
Ge            7.0222507234        4.0542974588        7.3942922897
Ge            7.0222599671        4.0543029726        4.9294860563
Ge            9.0286691099        5.2127032240       10.6654814252
Ge            9.0286682098        5.2127028813        8.3526878636
Ge           11.0349862583        6.3710505396       13.9338216793
Ge           11.0349829624        6.3710488137       11.6209918576
Ge            7.0222578161        4.0543008462       17.3567000957
Ge            7.0222446060        4.0542933962       14.8922283671



     Writing output data file ./out/ge.save/
     NEW-OLD atomic charge density approx. for the potential

     total cpu time spent up to now is       34.1 secs

     Self-consistent Calculation

     iteration #  1     ecut=    60.00 Ry     beta= 0.40
     Davidson diagonalization with overlap
     ethr =  1.00E-06,  avg # of iterations = 16.0

     total cpu time spent up to now is       36.1 secs

     total energy              =   -5713.83081533 Ry
     estimated scf accuracy    <       0.00158126 Ry

     iteration #  2     ecut=    60.00 Ry     beta= 0.40
     Davidson diagonalization with overlap
     ethr =  3.53E-07,  avg # of iterations =  5.0

     total cpu time spent up to now is       36.9 secs

     total energy              =   -5713.82985504 Ry
     estimated scf accuracy    <       0.02462119 Ry

     iteration #  3     ecut=    60.00 Ry     beta= 0.40
     Davidson diagonalization with overlap
     ethr =  3.53E-07,  avg # of iterations =  4.0

     total cpu time spent up to now is       37.6 secs

     total energy              =   -5713.83152871 Ry
     estimated scf accuracy    <       0.00014589 Ry

     iteration #  4     ecut=    60.00 Ry     beta= 0.40
     Davidson diagonalization with overlap
     ethr =  3.26E-08,  avg # of iterations =  3.0

     total cpu time spent up to now is       38.3 secs

     total energy              =   -5713.83141632 Ry
     estimated scf accuracy    <       0.00381165 Ry

     iteration #  5     ecut=    60.00 Ry     beta= 0.40
     Davidson diagonalization with overlap
     ethr =  3.26E-08,  avg # of iterations = 16.0

     total cpu time spent up to now is       39.5 secs

     total energy              =   -5713.83155566 Ry
     estimated scf accuracy    <       0.00028356 Ry

     iteration #  6     ecut=    60.00 Ry     beta= 0.40
     Davidson diagonalization with overlap
     ethr =  3.26E-08,  avg # of iterations =  2.0

     total cpu time spent up to now is       40.1 secs

     total energy              =   -5713.83157387 Ry
     estimated scf accuracy    <       0.00000585 Ry

     iteration #  7     ecut=    60.00 Ry     beta= 0.40
     Davidson diagonalization with overlap
     ethr =  1.31E-09,  avg # of iterations =  2.0

     total cpu time spent up to now is       40.7 secs

     total energy              =   -5713.83157444 Ry
     estimated scf accuracy    <       0.00000079 Ry

     iteration #  8     ecut=    60.00 Ry     beta= 0.40
     Davidson diagonalization with overlap
     ethr =  1.76E-10,  avg # of iterations =  3.0

     total cpu time spent up to now is       41.4 secs

     total energy              =   -5713.83157452 Ry
     estimated scf accuracy    <       0.00000032 Ry

     iteration #  9     ecut=    60.00 Ry     beta= 0.40
     Davidson diagonalization with overlap
     ethr =  7.06E-11,  avg # of iterations =  2.0

     total cpu time spent up to now is       42.0 secs

     End of self-consistent calculation

          k = 0.0000 0.0000 0.0000 ( 32941 PWs)   bands (ev):

   -21.6688 -21.6688 -21.6688 -21.6623 -21.6623 -21.6623 -21.6521 -21.6435
   -21.6435 -21.6431 -21.6431 -21.6431 -21.6342 -21.5803 -21.5803 -21.5653
   -21.5653 -21.5653 -21.5308 -21.5308 -21.5308 -21.5216 -21.5216 -21.5216
   -21.5052 -21.5052 -21.5052 -21.4938 -21.4938 -21.4938 -21.4413 -21.4413
   -21.4322 -21.4322 -21.4322 -21.4057 -21.4057 -21.3769 -21.3769 -21.3769
   -21.3573 -21.3573 -21.3573 -21.3515 -21.3515 -21.3515 -21.3498 -21.3498
   -21.3440 -21.3440 -21.3204 -21.3204 -21.3204 -21.3170 -21.3170 -21.3170
   -21.2884 -21.2884 -21.2876 -21.2876 -21.2876 -21.2856 -21.2856 -21.2834
   -21.2834 -21.2834 -21.2607 -21.2607 -21.2607 -21.2591 -21.2591 -21.2591
   -21.2572 -21.2534 -21.2423 -21.2423 -21.2423 -21.2379 -21.2379 -21.2379
   -21.2227 -21.2170 -21.1996 -21.1996 -21.1996 -21.1960 -21.1960 -21.1960
   -21.1854 -21.1854 -21.1854 -21.1851 -21.1851 -21.1851 -21.1587 -21.1587
   -21.1587 -21.1563 -21.1563 -21.1563 -21.1418 -21.1418 -21.1399 -21.1399
   -21.1383 -21.1383 -21.1383 -21.1375 -21.1375 -21.1375 -21.1027 -21.1027
   -21.1008 -21.1008 -21.0874 -21.0874 -21.0874 -21.0855 -21.0855 -21.0855
   -21.0600 -21.0599 -21.0599 -21.0584 -21.0584 -21.0582 -21.0582 -21.0582
   -21.0582 -21.0582 -21.0543 -21.0543 -21.0543 -21.0527 -21.0527 -21.0527
   -20.9994 -20.9994 -20.9994 -20.9963 -20.9963 -20.9963 -20.9942 -20.9942
   -20.9942 -20.9925 -20.9925 -20.9912 -20.9912 -20.9912 -20.9891 -20.9891
   -20.9542 -20.9526 -20.9464 -20.9464 -20.9464 -20.9463 -20.9463 -20.9463
    -9.1349  -8.3570  -7.5519  -7.2381  -7.2381  -7.2381  -6.6954  -6.6954
    -6.6953  -5.9514  -5.9514  -5.9514  -5.3551  -5.3551  -5.3551  -5.0440
    -4.5833  -4.2787  -4.2787  -4.2787  -3.9137  -3.9137  -3.9137  -3.0249
    -2.9966  -2.9966  -2.9966  -2.9314  -2.9313  -2.9313  -1.0397  -0.1892
    -0.1892  -0.1892   0.0680   0.0680   0.0680   0.6067   0.6067   0.6067
     1.0922   1.3344   1.3344   1.3344   1.6641   1.6641   1.6641   1.9641
     1.9641   1.9641   2.1161   2.1161   2.1161   2.1841   2.1841   2.5993
     2.5993   2.5993   2.7108   2.7383   2.7383   2.7383   2.8209   2.8209
     3.3841   3.3841   3.9382   4.1699   4.4086   4.5045   4.5045   4.5045
     4.6818   4.6818   4.6818   4.9844   4.9844   4.9844   5.3603   5.3604
     5.3604   5.4150   5.4150   5.4150   5.5488   5.5488   5.5488   5.7182
     5.7182   6.2081   6.2081   6.4639   6.8820   6.8820   6.9569   7.2844
     7.2844   7.2844   7.4536   7.4537   7.4537   7.5024   7.5024   7.5783
     7.5783   7.6455   7.6455   7.6455   7.8937

     the Fermi energy is     3.1036 ev

!    total energy              =   -5713.83157455 Ry
     estimated scf accuracy    <       0.00000003 Ry
     smearing contrib. (-TS)   =      -0.00032525 Ry
     internal energy E=F+TS    =   -5713.83124930 Ry

     The total energy is F=E-TS. E is the sum of the following terms:
     one-electron contribution =  -16821.39158391 Ry
     hartree contribution      =    8617.47800535 Ry
     xc contribution           =   -1394.05000232 Ry
     ewald contribution        =    3884.13233158 Ry

     convergence has been achieved in   9 iterations

     Forces acting on atoms (cartesian axes, Ry/au):

     atom    1 type  1   force =     0.00000122    0.00000071   -0.01104221
     atom    2 type  1   force =     0.00000397    0.00000229   -0.01853112
     atom    3 type  1   force =    -0.00000401   -0.00000232    0.01619832
     atom    4 type  1   force =    -0.00000424   -0.00000245   -0.01363412
     atom    5 type  1   force =    -0.00000180   -0.00000104    0.01359678
     atom    6 type  1   force =    -0.00000172   -0.00000099   -0.01613765
     atom    7 type  1   force =     0.00000470    0.00000272    0.01863285
     atom    8 type  1   force =     0.00000470    0.00000272    0.01091166
     atom    9 type  1   force =     0.00000045   -0.00000297   -0.01104561
     atom   10 type  1   force =     0.00000542   -0.00000782   -0.01852982
     atom   11 type  1   force =    -0.00000116    0.00000523    0.01618870
     atom   12 type  1   force =    -0.00000297    0.00000670   -0.01363940
     atom   13 type  1   force =    -0.00000246    0.00000303    0.01360679
     atom   14 type  1   force =    -0.00000060    0.00000198   -0.01613119
     atom   15 type  1   force =     0.00000478   -0.00000828    0.01863162
     atom   16 type  1   force =     0.00000098   -0.00000520    0.01091653
     atom   17 type  1   force =    -0.00000234    0.00000187   -0.01104561
     atom   18 type  1   force =    -0.00000407    0.00000860   -0.01852982
     atom   19 type  1   force =     0.00000395   -0.00000362    0.01618870
     atom   20 type  1   force =     0.00000431   -0.00000592   -0.01363940
     atom   21 type  1   force =     0.00000139   -0.00000365    0.01360679
     atom   22 type  1   force =     0.00000142   -0.00000151   -0.01613119
     atom   23 type  1   force =    -0.00000478    0.00000828    0.01863162
     atom   24 type  1   force =    -0.00000401    0.00000345    0.01091653
     atom   25 type  1   force =     0.00000024    0.00000014   -0.01104195
     atom   26 type  1   force =    -0.00000433   -0.00000250   -0.01852514
     atom   27 type  1   force =     0.00000102    0.00000059    0.01618529
     atom   28 type  1   force =     0.00000257    0.00000148   -0.01365180
     atom   29 type  1   force =     0.00000175    0.00000101    0.01361308
     atom   30 type  1   force =     0.00000073    0.00000042   -0.01612555
     atom   31 type  1   force =    -0.00000526   -0.00000303    0.01863009
     atom   32 type  1   force =     0.00000014    0.00000008    0.01092621

     Total force =     0.085444     Total SCF correction =     0.000822
     Energy error            =      6.8E-03 Ry
     Gradient error          =      1.9E-02 Ry/Bohr

     number of scf cycles    =   5
     number of bfgs steps    =   4

     energy             old  =   -5713.8247600262 Ry
     energy             new  =   -5713.8315745503 Ry

     CASE: energy            _new < energy            _old

     new trust radius        =       0.0388752070 bohr
     new conv_thr            =       0.0000001863 Ry


ATOMIC_POSITIONS (angstrom)
Ge            1.0032071693        0.5792016257        7.3800486646
Ge            1.0031951964        0.5791948900        4.9089129946
Ge            3.0095236267        1.7375485423       10.6673109043
Ge            3.0095061393        1.7375386227        8.3536862959
Ge            5.0159641455        2.8959670857       13.9328145300
Ge            5.0159506222        2.8959594548       11.6192199092
Ge            1.0031942112        0.5791934367       17.3772425724
Ge            1.0031982769        0.5791959610       14.9064100284
Ge            3.0095739592        4.0542692539        7.3800650465
Ge            3.0095670988        4.0542887936        4.9089217619
Ge            5.0158804238        5.2127338059       10.6672994238
Ge            5.0158792217        5.2127513407        8.3536727328
Ge            7.0222965588        6.3709907165       13.9328310744
Ge            7.0223005974        6.3710049537       11.6192374864
Ge            3.0095717130        4.0542879923       17.3772418647
Ge            3.0095811483        4.0542725527       14.9064210719
Ge            5.0158869566        0.5792315760        7.3800650465
Ge            5.0159002950        0.5792161301        4.9089217619
Ge            7.0223002930        1.7375110208       10.6672994238
Ge            7.0223147242        1.7375014777        8.3536727328
Ge            9.0285886416        2.8959892636       13.9328310744
Ge            9.0286028375        2.8959859078       11.6192374864
Ge            5.0159026742        0.5792192001       17.3772418647
Ge            5.0158938676        0.5792353565       14.9064210719
Ge            7.0222475208        4.0542956098        7.3800693879
Ge            7.0222551190        4.0543001735        4.9089177577
Ge            9.0286733666        5.2127056817       10.6672879453
Ge            9.0286743989        5.2127064546        8.3536638119
Ge           11.0349853585        6.3710500201       13.9328373399
Ge           11.0349804298        6.3710473514       11.6192497937
Ge            7.0222515178        4.0542972099       17.3772448345
Ge            7.0222403103        4.0542909161       14.9064245281



     Writing output data file ./out/ge.save/
     NEW-OLD atomic charge density approx. for the potential

     negative rho (up, down):  2.040E-08 0.000E+00

     total cpu time spent up to now is       42.3 secs

     Self-consistent Calculation

     iteration #  1     ecut=    60.00 Ry     beta= 0.40
     Davidson diagonalization with overlap
     ethr =  1.00E-06,  avg # of iterations =  6.0

     total cpu time spent up to now is       43.8 secs

     total energy              =   -5713.83877319 Ry
     estimated scf accuracy    <       0.00146435 Ry

     iteration #  2     ecut=    60.00 Ry     beta= 0.40
     Davidson diagonalization with overlap
     ethr =  3.27E-07,  avg # of iterations =  4.0

     total cpu time spent up to now is       44.6 secs

     total energy              =   -5713.83791385 Ry
     estimated scf accuracy    <       0.02167229 Ry

     iteration #  3     ecut=    60.00 Ry     beta= 0.40
     Davidson diagonalization with overlap
     ethr =  3.27E-07,  avg # of iterations =  4.0

     total cpu time spent up to now is       45.3 secs

     total energy              =   -5713.83940623 Ry
     estimated scf accuracy    <       0.00010181 Ry

     iteration #  4     ecut=    60.00 Ry     beta= 0.40
     Davidson diagonalization with overlap
     ethr =  2.27E-08,  avg # of iterations =  3.0

     total cpu time spent up to now is       46.0 secs

     total energy              =   -5713.83933137 Ry
     estimated scf accuracy    <       0.00217316 Ry

     iteration #  5     ecut=    60.00 Ry     beta= 0.40
     Davidson diagonalization with overlap
     ethr =  2.27E-08,  avg # of iterations =  2.0

     total cpu time spent up to now is       46.6 secs

     total energy              =   -5713.83941532 Ry
     estimated scf accuracy    <       0.00031985 Ry

     iteration #  6     ecut=    60.00 Ry     beta= 0.40
     Davidson diagonalization with overlap
     ethr =  2.27E-08,  avg # of iterations =  2.0

     total cpu time spent up to now is       47.2 secs

     total energy              =   -5713.83943314 Ry
     estimated scf accuracy    <       0.00000700 Ry

     iteration #  7     ecut=    60.00 Ry     beta= 0.40
     Davidson diagonalization with overlap
     ethr =  1.56E-09,  avg # of iterations =  2.0

     total cpu time spent up to now is       47.8 secs

     total energy              =   -5713.83943375 Ry
     estimated scf accuracy    <       0.00000071 Ry

     iteration #  8     ecut=    60.00 Ry     beta= 0.40
     Davidson diagonalization with overlap
     ethr =  1.59E-10,  avg # of iterations =  2.0

     total cpu time spent up to now is       48.5 secs

     total energy              =   -5713.83943379 Ry
     estimated scf accuracy    <       0.00000023 Ry

     iteration #  9     ecut=    60.00 Ry     beta= 0.40
     Davidson diagonalization with overlap
     ethr =  5.12E-11,  avg # of iterations =  2.0

     total cpu time spent up to now is       49.1 secs

     End of self-consistent calculation

          k = 0.0000 0.0000 0.0000 ( 32941 PWs)   bands (ev):

   -21.6495 -21.6495 -21.6495 -21.6431 -21.6431 -21.6431 -21.6324 -21.6233
   -21.6233 -21.6227 -21.6227 -21.6227 -21.6150 -21.5601 -21.5601 -21.5441
   -21.5441 -21.5441 -21.5109 -21.5109 -21.5109 -21.5015 -21.5015 -21.5015
   -21.4853 -21.4853 -21.4853 -21.4731 -21.4731 -21.4731 -21.4203 -21.4203
   -21.4101 -21.4101 -21.4101 -21.3845 -21.3845 -21.3551 -21.3551 -21.3551
   -21.3361 -21.3361 -21.3361 -21.3305 -21.3305 -21.3304 -21.3293 -21.3293
   -21.3243 -21.3243 -21.3000 -21.3000 -21.3000 -21.2968 -21.2968 -21.2968
   -21.2687 -21.2687 -21.2675 -21.2675 -21.2675 -21.2661 -21.2661 -21.2638
   -21.2638 -21.2638 -21.2440 -21.2413 -21.2413 -21.2413 -21.2405 -21.2405
   -21.2405 -21.2397 -21.2221 -21.2221 -21.2221 -21.2178 -21.2178 -21.2178
   -21.2030 -21.1974 -21.1857 -21.1857 -21.1857 -21.1818 -21.1818 -21.1818
   -21.1703 -21.1703 -21.1703 -21.1700 -21.1700 -21.1700 -21.1427 -21.1427
   -21.1427 -21.1401 -21.1401 -21.1401 -21.1257 -21.1257 -21.1242 -21.1242
   -21.1235 -21.1235 -21.1235 -21.1230 -21.1230 -21.1230 -21.0884 -21.0884
   -21.0867 -21.0867 -21.0750 -21.0749 -21.0749 -21.0729 -21.0729 -21.0729
   -21.0688 -21.0688 -21.0687 -21.0670 -21.0670 -21.0663 -21.0663 -21.0663
   -21.0663 -21.0663 -21.0615 -21.0615 -21.0615 -21.0593 -21.0592 -21.0592
   -21.0081 -21.0081 -21.0081 -21.0049 -21.0049 -21.0049 -21.0019 -21.0019
   -21.0019 -20.9991 -20.9991 -20.9990 -20.9990 -20.9990 -20.9967 -20.9967
   -20.9617 -20.9592 -20.9531 -20.9530 -20.9530 -20.9525 -20.9525 -20.9525
    -9.1051  -8.3118  -7.5202  -7.2117  -7.2117  -7.2117  -6.6575  -6.6575
    -6.6575  -5.9162  -5.9162  -5.9162  -5.3274  -5.3274  -5.3274  -5.0339
    -4.5806  -4.2530  -4.2530  -4.2530  -3.8873  -3.8873  -3.8873  -3.0289
    -2.9915  -2.9915  -2.9915  -2.9202  -2.9202  -2.9202  -1.0552  -0.1702
    -0.1702  -0.1702   0.0794   0.0794   0.0794   0.6373   0.6373   0.6373
     1.0770   1.3845   1.3845   1.3845   1.6599   1.6599   1.6599   1.9990
     1.9990   1.9990   2.1160   2.1160   2.1160   2.2126   2.2126   2.5955
     2.5955   2.5955   2.6965   2.7312   2.7313   2.7313   2.8695   2.8695
     3.4211   3.4211   3.9663   4.1808   4.4600   4.5297   4.5297   4.5297
     4.6851   4.6851   4.6851   5.0108   5.0108   5.0109   5.3574   5.3574
     5.3574   5.4157   5.4157   5.4158   5.5472   5.5472   5.5472   5.7340
     5.7340   6.2173   6.2173   6.4564   6.8919   6.8919   6.9270   7.2585
     7.2585   7.2585   7.4538   7.4538   7.4538   7.5182   7.5182   7.5875
     7.5875   7.6464   7.6464   7.6464   7.8646

     the Fermi energy is     3.1454 ev

!    total energy              =   -5713.83943382 Ry
     estimated scf accuracy    <       0.00000003 Ry
     smearing contrib. (-TS)   =      -0.00037223 Ry
     internal energy E=F+TS    =   -5713.83906159 Ry

     The total energy is F=E-TS. E is the sum of the following terms:
     one-electron contribution =  -16704.90905440 Ry
     hartree contribution      =    8559.43155922 Ry
     xc contribution           =   -1393.99570995 Ry
     ewald contribution        =    3825.63414354 Ry

     convergence has been achieved in   9 iterations

     Forces acting on atoms (cartesian axes, Ry/au):

     atom    1 type  1   force =     0.00000155    0.00000089   -0.00981256
     atom    2 type  1   force =     0.00000448    0.00000259   -0.01623752
     atom    3 type  1   force =     0.00000077    0.00000045    0.01643776
     atom    4 type  1   force =     0.00000044    0.00000025   -0.01607240
     atom    5 type  1   force =    -0.00001150   -0.00000664    0.01610295
     atom    6 type  1   force =    -0.00000922   -0.00000532   -0.01650683
     atom    7 type  1   force =     0.00000399    0.00000230    0.01630118
     atom    8 type  1   force =     0.00000309    0.00000178    0.00976740
     atom    9 type  1   force =     0.00000027   -0.00000249   -0.00981039
     atom   10 type  1   force =     0.00000488   -0.00000880   -0.01623378
     atom   11 type  1   force =    -0.00000423    0.00000198    0.01642741
     atom   12 type  1   force =    -0.00000519    0.00000353   -0.01607409
     atom   13 type  1   force =     0.00000575    0.00000959    0.01611004
     atom   14 type  1   force =     0.00000221    0.00000852   -0.01649720
     atom   15 type  1   force =     0.00000511   -0.00000703    0.01630536
     atom   16 type  1   force =    -0.00000147   -0.00000245    0.00976810
     atom   17 type  1   force =    -0.00000203    0.00000148   -0.00981039
     atom   18 type  1   force =    -0.00000518    0.00000863   -0.01623378
     atom   19 type  1   force =    -0.00000040   -0.00000465    0.01642741
     atom   20 type  1   force =     0.00000047   -0.00000626   -0.01607409
     atom   21 type  1   force =     0.00001119    0.00000019    0.01611004
     atom   22 type  1   force =     0.00000848   -0.00000235   -0.01649720
     atom   23 type  1   force =    -0.00000353    0.00000794    0.01630536
     atom   24 type  1   force =    -0.00000286   -0.00000005    0.00976810
     atom   25 type  1   force =     0.00000098    0.00000057   -0.00980945
     atom   26 type  1   force =    -0.00000425   -0.00000245   -0.01622194
     atom   27 type  1   force =     0.00000370    0.00000214    0.01642073
     atom   28 type  1   force =     0.00000414    0.00000239   -0.01608393
     atom   29 type  1   force =    -0.00000507   -0.00000293    0.01611811
     atom   30 type  1   force =    -0.00000176   -0.00000102   -0.01648989
     atom   31 type  1   force =    -0.00000630   -0.00000364    0.01630807
     atom   32 type  1   force =     0.00000149    0.00000086    0.00978743

     Total force =     0.084407     Total SCF correction =     0.000779
     Energy error            =      7.9E-03 Ry
     Gradient error          =      1.7E-02 Ry/Bohr

     number of scf cycles    =   6
     number of bfgs steps    =   5

     energy             old  =   -5713.8315745503 Ry
     energy             new  =   -5713.8394338205 Ry

     CASE: energy            _new < energy            _old

     new trust radius        =       0.0583128105 bohr
     new conv_thr            =       0.0000001651 Ry


ATOMIC_POSITIONS (angstrom)
Ge            1.0032125819        0.5792047506        7.3587084741
Ge            1.0032014995        0.5791985291        4.8780551851
Ge            3.0095193588        1.7375460782       10.6718294874
Ge            3.0094983171        1.7375341066        8.3519863385
Ge            5.0159726606        2.8959720018       13.9345621917
Ge            5.0159564994        2.8959628480       11.6146800557
Ge            1.0031992273        0.5791963328       17.4080329059
Ge            1.0032022861        0.5791982757       14.9277657589
Ge            3.0095786175        4.0542605269        7.3587304905
Ge            3.0095749819        4.0542777096        4.8780696145
Ge            5.0158727197        5.2127431423       10.6718092032
Ge            5.0158680447        5.2127672143        8.3519678650
Ge            7.0223044726        6.3709761358       13.9345881468
Ge            7.0223071078        6.3709948375       11.6147098315
Ge            3.0095812058        4.0542773781       17.4080372465
Ge            3.0095845179        4.0542650484       14.9277783380
Ge            5.0158817279        0.5792399737        7.3587304905
Ge            5.0158946376        0.5792284991        4.8780696145
Ge            7.0223045264        1.7374996807       10.6718092032
Ge            7.0223228827        1.7374838613        8.3519678650
Ge            9.0285799713        2.8960034075       13.9345881468
Ge            9.0285973318        2.8959966041       11.6147098315
Ge            5.0158982285        0.5792327283       17.4080372465
Ge            5.0158890535        0.5792420269       14.9277783380
Ge            7.0222433057        4.0542931761        7.3587374788
Ge            7.0222475169        4.0542957844        4.8780741103
Ge            9.0286814740        5.2127103625       10.6717881033
Ge            9.0286850428        5.2127125999        8.3519508660
Ge           11.0349780864        6.3710458216       13.9346006347
Ge           11.0349746169        6.3710439954       11.6147308163
Ge            7.0222406445        4.0542909322       17.4080431766
Ge            7.0222352745        4.0542880087       14.9277951678



     Writing output data file ./out/ge.save/
     NEW-OLD atomic charge density approx. for the potential

     negative rho (up, down):  2.268E-07 0.000E+00

     total cpu time spent up to now is       49.4 secs

     Self-consistent Calculation

     iteration #  1     ecut=    60.00 Ry     beta= 0.40
     Davidson diagonalization with overlap
     ethr =  1.00E-06,  avg # of iterations =  7.0

     total cpu time spent up to now is       51.0 secs

     total energy              =   -5713.84951149 Ry
     estimated scf accuracy    <       0.00272473 Ry

     iteration #  2     ecut=    60.00 Ry     beta= 0.40
     Davidson diagonalization with overlap
     ethr =  6.08E-07,  avg # of iterations =  4.0

     total cpu time spent up to now is       51.9 secs

     total energy              =   -5713.84801246 Ry
     estimated scf accuracy    <       0.03667181 Ry

     iteration #  3     ecut=    60.00 Ry     beta= 0.40
     Davidson diagonalization with overlap
     ethr =  6.08E-07,  avg # of iterations =  4.0

     total cpu time spent up to now is       52.6 secs

     total energy              =   -5713.85057118 Ry
     estimated scf accuracy    <       0.00029167 Ry

     iteration #  4     ecut=    60.00 Ry     beta= 0.40
     Davidson diagonalization with overlap
     ethr =  6.51E-08,  avg # of iterations =  3.0

     total cpu time spent up to now is       53.3 secs

     total energy              =   -5713.85015824 Ry
     estimated scf accuracy    <       0.01706365 Ry

     iteration #  5     ecut=    60.00 Ry     beta= 0.40
     Davidson diagonalization with overlap
     ethr =  6.51E-08,  avg # of iterations =  3.0

     total cpu time spent up to now is       53.9 secs

     total energy              =   -5713.85064201 Ry
     estimated scf accuracy    <       0.00010982 Ry

     iteration #  6     ecut=    60.00 Ry     beta= 0.40
     Davidson diagonalization with overlap
     ethr =  2.45E-08,  avg # of iterations =  2.0

     total cpu time spent up to now is       54.5 secs

     total energy              =   -5713.85065903 Ry
     estimated scf accuracy    <       0.00002233 Ry

     iteration #  7     ecut=    60.00 Ry     beta= 0.40
     Davidson diagonalization with overlap
     ethr =  4.98E-09,  avg # of iterations =  2.0

     total cpu time spent up to now is       55.2 secs

     total energy              =   -5713.85066139 Ry
     estimated scf accuracy    <       0.00000171 Ry

     iteration #  8     ecut=    60.00 Ry     beta= 0.40
     Davidson diagonalization with overlap
     ethr =  3.82E-10,  avg # of iterations =  4.0

     total cpu time spent up to now is       55.9 secs

[...]
     2.1338   2.1338   2.2510   2.2510   2.2510   2.5388   2.5388   2.5388
     2.6265   2.6804   2.6804   2.6805   2.6979   2.6979   3.2685   3.2685
     3.7038   3.7038   4.1355   4.3879   4.5658   4.5658   4.5658   4.7402
     4.9338   4.9338   4.9338   5.0682   5.0682   5.0682   5.3092   5.3092
     5.3092   5.4290   5.4290   5.4290   5.5179   5.5179   5.5179   5.9307
     5.9307   6.2609   6.2609   6.2835   6.7350   6.9544   6.9544   6.9544
     6.9738   6.9738   7.2815   7.2815   7.2815   7.6174   7.6175   7.6175
     7.6665   7.6665   7.6982   7.6982   7.7226

     the Fermi energy is     3.4862 ev

!    total energy              =   -5713.89736632 Ry
     estimated scf accuracy    <       0.00000004 Ry
     smearing contrib. (-TS)   =      -0.00174740 Ry
     internal energy E=F+TS    =   -5713.89561892 Ry

     The total energy is F=E-TS. E is the sum of the following terms:
     one-electron contribution =  -14819.30195893 Ry
     hartree contribution      =    7618.61503702 Ry
     xc contribution           =   -1393.29977256 Ry
     ewald contribution        =    2880.09107555 Ry

     convergence has been achieved in   8 iterations

     Forces acting on atoms (cartesian axes, Ry/au):

     atom    1 type  1   force =     0.00000335    0.00000194    0.00045124
     atom    2 type  1   force =     0.00001325    0.00000765   -0.00028341
     atom    3 type  1   force =    -0.00000044   -0.00000025   -0.00244335
     atom    4 type  1   force =    -0.00000164   -0.00000094    0.00172482
     atom    5 type  1   force =     0.00000862    0.00000498   -0.00173418
     atom    6 type  1   force =     0.00001150    0.00000664    0.00243774
     atom    7 type  1   force =     0.00001185    0.00000684    0.00026202
     atom    8 type  1   force =    -0.00000282   -0.00000163   -0.00041193
     atom    9 type  1   force =     0.00000107   -0.00000445    0.00045122
     atom   10 type  1   force =     0.00001360   -0.00002343   -0.00028542
     atom   11 type  1   force =    -0.00000374    0.00000153   -0.00242820
     atom   12 type  1   force =    -0.00000806    0.00000640    0.00173130
     atom   13 type  1   force =     0.00000330   -0.00001093   -0.00173583
     atom   14 type  1   force =     0.00000281   -0.00001388    0.00243298
     atom   15 type  1   force =     0.00001630   -0.00002346    0.00026184
     atom   16 type  1   force =     0.00000410    0.00000096   -0.00041923
     atom   17 type  1   force =    -0.00000332    0.00000315    0.00045122
     atom   18 type  1   force =    -0.00001349    0.00002350   -0.00028542
     atom   19 type  1   force =    -0.00000054   -0.00000401   -0.00242820
     atom   20 type  1   force =     0.00000151   -0.00001018    0.00173130
     atom   21 type  1   force =    -0.00000782    0.00000832   -0.00173583
     atom   22 type  1   force =    -0.00001061    0.00000937    0.00243298
     atom   23 type  1   force =    -0.00001217    0.00002585    0.00026184
     atom   24 type  1   force =     0.00000289    0.00000307   -0.00041923
     atom   25 type  1   force =    -0.00000086   -0.00000050    0.00044193
     atom   26 type  1   force =    -0.00001341   -0.00000774   -0.00028782
     atom   27 type  1   force =     0.00000423    0.00000244   -0.00242888
     atom   28 type  1   force =     0.00000794    0.00000458    0.00173247
     atom   29 type  1   force =    -0.00000316   -0.00000183   -0.00173839
     atom   30 type  1   force =    -0.00000351   -0.00000203    0.00243041
     atom   31 type  1   force =    -0.00001641   -0.00000948    0.00025763
     atom   32 type  1   force =    -0.00000432   -0.00000249   -0.00042764

     Total force =     0.008573     Total SCF correction =     0.000545
     Energy error            =      4.4E-04 Ry
     Gradient error          =      2.4E-03 Ry/Bohr

     number of scf cycles    =  15
     number of bfgs steps    =  14

     energy             old  =   -5713.8969245346 Ry
     energy             new  =   -5713.8973663201 Ry

     CASE: energy            _new < energy            _old

     new trust radius        =       0.0099117360 bohr
     new conv_thr            =       0.0000000244 Ry


ATOMIC_POSITIONS (angstrom)
Ge            1.0032401079        0.5792206428        7.1606274411
Ge            1.0033712029        0.5792965073        4.6510168093
Ge            3.0095018101        1.7375359465       10.6332800423
Ge            3.0095016145        1.7375360104        8.2119864330
Ge            5.0159394684        2.8959528383       14.0744242984
Ge            5.0159386815        2.8959525609       11.6531544308
Ge            1.0033626645        0.5792906933       17.6352941981
Ge            1.0032434999        0.5792220705       15.1256434169
Ge            3.0096059121        4.0542102278        7.1607002440
Ge            3.0097718247        4.0539750159        4.6510857099
Ge            5.0158739349        5.2127662125       10.6331401761
Ge            5.0158941181        5.2127561606        8.2118391139
Ge            7.0223093622        6.3710057099       14.0745780830
Ge            7.0223163530        6.3710066083       11.6532949842
Ge            3.0098089082        4.0539544560       17.6353387214
Ge            3.0096054403        4.0542000875       15.1256904177
Ge            5.0158518149        0.5792887610        7.1607002440
Ge            5.0157309186        0.5795503168        4.6510857099
Ge            7.0223251134        1.7374891979       10.6331401761
Ge            7.0223263466        1.7375119684        8.2118391139
Ge            9.0286080280        2.8959928550       14.0745780830
Ge            9.0286121482        2.8959987252       11.6532949842
Ge            5.0157324209        0.5795913854       17.6353387214
Ge            5.0158432569        0.5792926267       15.1256904177
Ge            7.0222161542        4.0542775002        7.1607501097
Ge            7.0220519808        4.0541828917        4.6511394515
Ge            9.0286823465        5.2127108662       10.6330503740
Ge            9.0286636976        5.2127002762        8.2117198098
Ge           11.0349722753        6.3710424665       14.0746979688
Ge           11.0349684760        6.3710404499       11.6533866051
Ge            7.0220115308        4.0541586534       17.6354317664
Ge            7.0222070080        4.0542716890       15.1257841673



     Writing output data file ./out/ge.save/
     NEW-OLD atomic charge density approx. for the potential

     total cpu time spent up to now is      120.8 secs

     Self-consistent Calculation

     iteration #  1     ecut=    60.00 Ry     beta= 0.40
     Davidson diagonalization with overlap
     ethr =  1.00E-06,  avg # of iterations =  4.0

     Threshold (ethr) on eigenvalues was too large:
     Diagonalizing with lowered threshold

     Davidson diagonalization with overlap
     ethr =  2.33E-08,  avg # of iterations =  4.0

     total cpu time spent up to now is      122.7 secs

     total energy              =   -5713.89742600 Ry
     estimated scf accuracy    <       0.00009899 Ry

     iteration #  2     ecut=    60.00 Ry     beta= 0.40
     Davidson diagonalization with overlap
     ethr =  2.21E-08,  avg # of iterations =  3.0

     total cpu time spent up to now is      123.4 secs

     total energy              =   -5713.89737602 Ry
     estimated scf accuracy    <       0.00106070 Ry

     iteration #  3     ecut=    60.00 Ry     beta= 0.40
     Davidson diagonalization with overlap
     ethr =  2.21E-08,  avg # of iterations =  3.0

     total cpu time spent up to now is      124.0 secs

     total energy              =   -5713.89744828 Ry
     estimated scf accuracy    <       0.00008261 Ry

     iteration #  4     ecut=    60.00 Ry     beta= 0.40
     Davidson diagonalization with overlap
     ethr =  1.84E-08,  avg # of iterations =  2.0

     total cpu time spent up to now is      124.7 secs

     total energy              =   -5713.89742898 Ry
     estimated scf accuracy    <       0.00115440 Ry

     iteration #  5     ecut=    60.00 Ry     beta= 0.40
     Davidson diagonalization with overlap
     ethr =  1.84E-08,  avg # of iterations =  2.0

     total cpu time spent up to now is      125.3 secs

     total energy              =   -5713.89745907 Ry
     estimated scf accuracy    <       0.00003551 Ry

     iteration #  6     ecut=    60.00 Ry     beta= 0.40
     Davidson diagonalization with overlap
     ethr =  7.93E-09,  avg # of iterations =  2.0

     total cpu time spent up to now is      125.9 secs

     total energy              =   -5713.89746168 Ry
     estimated scf accuracy    <       0.00000090 Ry

     iteration #  7     ecut=    60.00 Ry     beta= 0.40
     Davidson diagonalization with overlap
     ethr =  2.01E-10,  avg # of iterations =  3.0

     total cpu time spent up to now is      126.6 secs

     total energy              =   -5713.89746179 Ry
     estimated scf accuracy    <       0.00000010 Ry

     iteration #  8     ecut=    60.00 Ry     beta= 0.40
     Davidson diagonalization with overlap
     ethr =  2.30E-11,  avg # of iterations =  3.0

     total cpu time spent up to now is      127.3 secs

     total energy              =   -5713.89746180 Ry
     estimated scf accuracy    <       0.00000006 Ry

     iteration #  9     ecut=    60.00 Ry     beta= 0.40
     Davidson diagonalization with overlap
     ethr =  1.30E-11,  avg # of iterations =  2.0

     total cpu time spent up to now is      127.9 secs

     End of self-consistent calculation

          k = 0.0000 0.0000 0.0000 ( 32941 PWs)   bands (ev):

   -21.3971 -21.3971 -21.3971 -21.3965 -21.3965 -21.3933 -21.3932 -21.3932
   -21.3863 -21.3863 -21.3863 -21.3817 -21.3543 -21.3360 -21.3360 -21.3188
   -21.3188 -21.3188 -21.2839 -21.2839 -21.2839 -21.2768 -21.2768 -21.2768
   -21.2574 -21.2574 -21.2574 -21.2563 -21.2563 -21.2563 -21.2039 -21.2039
   -21.2022 -21.2022 -21.2022 -21.1764 -21.1764 -21.1700 -21.1700 -21.1699
   -21.1672 -21.1672 -21.1672 -21.1621 -21.1614 -21.1556 -21.1556 -21.1556
   -21.1505 -21.1505 -21.1505 -21.1500 -21.1500 -21.1481 -21.1481 -21.1481
   -21.1477 -21.1477 -21.1465 -21.1465 -21.1465 -21.1457 -21.1457 -21.1436
   -21.1436 -21.1431 -21.1431 -21.1430 -21.1413 -21.1413 -21.1413 -21.1392
   -21.1392 -21.1392 -21.1175 -21.1175 -21.1175 -21.1134 -21.1134 -21.1134
   -21.1115 -21.1115 -21.1072 -21.1072 -21.1044 -21.1044 -21.1044 -21.1019
   -21.1019 -21.1019 -21.0848 -21.0848 -21.0848 -21.0842 -21.0842 -21.0842
   -21.0724 -21.0724 -21.0712 -21.0712 -21.0688 -21.0688 -21.0688 -21.0683
   -21.0683 -21.0683 -21.0632 -21.0632 -21.0632 -21.0546 -21.0546 -21.0546
   -21.0468 -21.0418 -21.0418 -21.0418 -21.0409 -21.0369 -21.0369 -21.0369
   -20.9898 -20.9898 -20.9898 -20.9896 -20.9896 -20.9896 -20.9672 -20.9672
   -20.9672 -20.9669 -20.9669 -20.9669 -20.9635 -20.9635 -20.9635 -20.9618
   -20.9618 -20.9618 -20.9585 -20.9562 -20.9522 -20.9522 -20.9517 -20.9517
   -20.9340 -20.9340 -20.9340 -20.9337 -20.9337 -20.9337 -20.9068 -20.9068
   -20.9063 -20.9063 -20.9005 -20.9005 -20.9005 -20.9005 -20.9004 -20.9004
    -8.5875  -7.9220  -7.2953  -6.6960  -6.6960  -6.6960  -6.2099  -6.2099
    -6.2099  -5.6416  -5.6415  -5.6415  -5.0260  -5.0260  -5.0260  -4.8870
    -4.5791  -4.1096  -4.1095  -4.1095  -3.6349  -3.6349  -3.6349  -2.9274
    -2.9264  -2.9264  -2.9264  -2.8409  -2.8409  -2.8409  -1.1149   0.0744
     0.0744   0.0744   0.3067   0.3067   0.3068   0.8454   1.1306   1.1306
     1.1306   1.6502   1.6502   1.6502   1.7656   1.7657   1.7657   2.1324
     2.1324   2.1324   2.2527   2.2528   2.2528   2.5397   2.5397   2.5397
     2.6222   2.6796   2.6796   2.6796   2.6941   2.6941   3.2609   3.2609
     3.7045   3.7045   4.1394   4.3909   4.5667   4.5667   4.5668   4.7360
     4.9333   4.9333   4.9333   5.0650   5.0650   5.0650   5.3087   5.3087
     5.3087   5.4277   5.4277   5.4277   5.5183   5.5183   5.5183   5.9247
     5.9247   6.2608   6.2608   6.2922   6.7373   6.9633   6.9633   6.9633
     6.9718   6.9718   7.2901   7.2902   7.2902   7.6240   7.6241   7.6241
     7.6664   7.6664   7.6982   7.6982   7.7093

     the Fermi energy is     3.4827 ev

!    total energy              =   -5713.89746181 Ry
     estimated scf accuracy    <          7.5E-09 Ry
     smearing contrib. (-TS)   =      -0.00158206 Ry
     internal energy E=F+TS    =   -5713.89587975 Ry

     The total energy is F=E-TS. E is the sum of the following terms:
     one-electron contribution =  -14852.74665190 Ry
     hartree contribution      =    7635.30939691 Ry
     xc contribution           =   -1393.31264808 Ry
     ewald contribution        =    2896.85402332 Ry

     convergence has been achieved in   9 iterations

     Forces acting on atoms (cartesian axes, Ry/au):

     atom    1 type  1   force =     0.00000202    0.00000117    0.00045454
     atom    2 type  1   force =     0.00001294    0.00000747   -0.00059372
     atom    3 type  1   force =    -0.00000140   -0.00000081   -0.00047823
     atom    4 type  1   force =    -0.00000051   -0.00000029    0.00051472
     atom    5 type  1   force =     0.00000607    0.00000350   -0.00051668
     atom    6 type  1   force =     0.00000764    0.00000441    0.00048328
     atom    7 type  1   force =     0.00001261    0.00000728    0.00058897
     atom    8 type  1   force =    -0.00000147   -0.00000085   -0.00044668
     atom    9 type  1   force =     0.00000087   -0.00000282    0.00045304
     atom   10 type  1   force =     0.00001462   -0.00002378   -0.00059523
     atom   11 type  1   force =    -0.00000236    0.00000212   -0.00046856
     atom   12 type  1   force =    -0.00000664    0.00000468    0.00051682
     atom   13 type  1   force =     0.00000360   -0.00000891   -0.00051567
     atom   14 type  1   force =     0.00000403   -0.00001039    0.00047800
     atom   15 type  1   force =     0.00001648   -0.00002429    0.00058751
     atom   16 type  1   force =     0.00000260    0.00000041   -0.00045149
     atom   17 type  1   force =    -0.00000201    0.00000217    0.00045304
     atom   18 type  1   force =    -0.00001328    0.00002455   -0.00059523
     atom   19 type  1   force =     0.00000065   -0.00000311   -0.00046856
     atom   20 type  1   force =     0.00000073   -0.00000809    0.00051682
     atom   21 type  1   force =    -0.00000592    0.00000757   -0.00051567
     atom   22 type  1   force =    -0.00000698    0.00000868    0.00047800
     atom   23 type  1   force =    -0.00001280    0.00002642    0.00058751
     atom   24 type  1   force =     0.00000165    0.00000204   -0.00045149
     atom   25 type  1   force =    -0.00000110   -0.00000064    0.00044810
     atom   26 type  1   force =    -0.00001445   -0.00000834   -0.00059886
     atom   27 type  1   force =     0.00000237    0.00000137   -0.00046897
     atom   28 type  1   force =     0.00000693    0.00000400    0.00052011
     atom   29 type  1   force =    -0.00000363   -0.00000209   -0.00051944
     atom   30 type  1   force =    -0.00000438   -0.00000253    0.00047879
     atom   31 type  1   force =    -0.00001640   -0.00000947    0.00058331
     atom   32 type  1   force =    -0.00000251   -0.00000145   -0.00045811

     Total force =     0.002895     Total SCF correction =     0.000538
     SCF correction compared to forces is large: reduce conv_thr to get better values
     Energy error            =      9.5E-05 Ry
     Gradient error          =      6.0E-04 Ry/Bohr

     bfgs converged in  16 scf cycles and  15 bfgs steps
     (criteria: energy <  1.0E-04 Ry, force <  1.0E-03 Ry/Bohr)

     End of BFGS Geometry Optimization

     Final energy             =   -5713.8974618070 Ry

     File ./out/ge.bfgs deleted, as requested
Begin final coordinates

ATOMIC_POSITIONS (angstrom)
Ge            1.0032401079        0.5792206428        7.1606274411
Ge            1.0033712029        0.5792965073        4.6510168093
Ge            3.0095018101        1.7375359465       10.6332800423
Ge            3.0095016145        1.7375360104        8.2119864330
Ge            5.0159394684        2.8959528383       14.0744242984
Ge            5.0159386815        2.8959525609       11.6531544308
Ge            1.0033626645        0.5792906933       17.6352941981
Ge            1.0032434999        0.5792220705       15.1256434169
Ge            3.0096059121        4.0542102278        7.1607002440
Ge            3.0097718247        4.0539750159        4.6510857099
Ge            5.0158739349        5.2127662125       10.6331401761
Ge            5.0158941181        5.2127561606        8.2118391139
Ge            7.0223093622        6.3710057099       14.0745780830
Ge            7.0223163530        6.3710066083       11.6532949842
Ge            3.0098089082        4.0539544560       17.6353387214
Ge            3.0096054403        4.0542000875       15.1256904177
Ge            5.0158518149        0.5792887610        7.1607002440
Ge            5.0157309186        0.5795503168        4.6510857099
Ge            7.0223251134        1.7374891979       10.6331401761
Ge            7.0223263466        1.7375119684        8.2118391139
Ge            9.0286080280        2.8959928550       14.0745780830
Ge            9.0286121482        2.8959987252       11.6532949842
Ge            5.0157324209        0.5795913854       17.6353387214
Ge            5.0158432569        0.5792926267       15.1256904177
Ge            7.0222161542        4.0542775002        7.1607501097
Ge            7.0220519808        4.0541828917        4.6511394515
Ge            9.0286823465        5.2127108662       10.6330503740
Ge            9.0286636976        5.2127002762        8.2117198098
Ge           11.0349722753        6.3710424665       14.0746979688
Ge           11.0349684760        6.3710404499       11.6533866051
Ge            7.0220115308        4.0541586534       17.6354317664
Ge            7.0222070080        4.0542716890       15.1257841673
End final coordinates



     Writing output data file ./out/ge.save/
 
     init_run     :      0.28s CPU      0.53s WALL (       1 calls)
     electrons    :     90.85s CPU    123.03s WALL (      16 calls)
     update_pot   :      0.86s CPU      0.95s WALL (      15 calls)
     forces       :      1.98s CPU      2.80s WALL (      16 calls)

     Called by init_run:
     wfcinit      :      0.18s CPU      0.34s WALL (       1 calls)
     potinit      :      0.02s CPU      0.04s WALL (       1 calls)
     hinit0       :      0.03s CPU      0.08s WALL (       1 calls)

     Called by electrons:
     c_bands      :     80.80s CPU    111.01s WALL (     155 calls)
     sum_band     :      8.09s CPU      9.13s WALL (     155 calls)
     v_of_rho     :      1.59s CPU      2.10s WALL (     169 calls)
     mix_rho      :      0.34s CPU      0.36s WALL (     155 calls)

     Called by c_bands:
     init_us_2    :      1.06s CPU      1.09s WALL (     311 calls)
     regterg      :     76.70s CPU    106.70s WALL (     155 calls)

     Called by *egterg:
     rdiaghg      :     11.06s CPU     26.61s WALL (     698 calls)
     h_psi        :     43.06s CPU     48.70s WALL (     716 calls)
     g_psi        :      0.22s CPU      0.24s WALL (     560 calls)

     Called by h_psi:
     h_psi:calbec :      5.42s CPU      6.16s WALL (     716 calls)
     vloc_psi     :     33.24s CPU     38.06s WALL (     716 calls)
     add_vuspsi   :      3.86s CPU      3.92s WALL (     716 calls)

     General routines
     calbec       :      6.28s CPU      7.63s WALL (     780 calls)
     fft          :      1.18s CPU      1.78s WALL (    1497 calls)
     ffts         :      0.09s CPU      0.10s WALL (     155 calls)
     fftw         :     37.60s CPU     43.02s WALL (  125665 calls)
 
     Parallel routines
 
     PWSCF        :   1m34.45s CPU   2m 8.44s WALL

 
   This run was terminated on:  10:46:55  28Apr2025            

=------------------------------------------------------------------------------=
   JOB DONE.
=------------------------------------------------------------------------------=
