
     Program PWSCF v.7.2 starts on 12May2025 at 12:36:47 

     This program is part of the open-source Quantum ESPRESSO suite
     for quantum simulation of materials; please cite
         "P. Giannozzi et al., J. Phys.:Condens. Matter 21 395502 (2009);
         "P. Giannozzi et al., J. Phys.:Condens. Matter 29 465901 (2017);
         "P. Giannozzi et al., J. Chem. Phys. 152 154105 (2020);
          URL http://www.quantum-espresso.org", 
     in publications or presentations arising from this work. More details at
     http://www.quantum-espresso.org/quote

     Parallel version (MPI), running on    16 processors

     MPI processes distributed on     1 nodes
     170578 MiB available memory on the printing compute node when the environment starts

     Waiting for input...
     Reading input from standard input
Warning: card &CELL ignored
Warning: card / ignored

     Current dimensions of program PWSCF are:
     Max number of different atomic species (ntypx) = 10
     Max number of k-points (npk) =  40000
     Max angular momentum in pseudopotentials (lmaxx) =  4

     gamma-point specific algorithms are used

     R & G space division:  proc/nbgrp/npool/nimage =      16
     Subspace diagonalization in iterative solution of the eigenvalue problem:
     a serial algorithm will be used


     Parallelization info
     --------------------
     sticks:   dense  smooth     PW     G-vecs:    dense   smooth      PW
     Min         611     611    152                45764    45764    5724
     Max         614     614    154                45770    45770    5730
     Sum        9809    9809   2449               732287   732287   91623

     Using Slab Decomposition



     bravais-lattice index     =            1
     lattice parameter (alat)  =      22.6767  a.u.
     unit-cell volume          =   11661.1220 (a.u.)^3
     number of atoms/cell      =            6
     number of atomic types    =            2
     number of electrons       =        16.00
     number of Kohn-Sham states=           12
     kinetic-energy cutoff     =      60.0000  Ry
     charge density cutoff     =     240.0000  Ry
     scf convergence threshold =      1.0E-08
     mixing beta               =       0.4000
     number of iterations used =            8  plain     mixing
     energy convergence thresh.=      1.0E-05
     force convergence thresh. =      1.0E-04
     Exchange-correlation= PBE
                           (   1   4   3   4   0   0   0)
     nstep                     =           50


     celldm(1)=  22.676713  celldm(2)=   0.000000  celldm(3)=   0.000000
     celldm(4)=   0.000000  celldm(5)=   0.000000  celldm(6)=   0.000000

     crystal axes: (cart. coord. in units of alat)
               a(1) = (   1.000000   0.000000   0.000000 )  
               a(2) = (   0.000000   1.000000   0.000000 )  
               a(3) = (   0.000000   0.000000   1.000000 )  

     reciprocal axes: (cart. coord. in units 2 pi/alat)
               b(1) = (  1.000000  0.000000  0.000000 )  
               b(2) = (  0.000000  1.000000  0.000000 )  
               b(3) = (  0.000000  0.000000  1.000000 )  


     PseudoPot. # 1 for O  read from file:
     ./O.upf
     MD5 check sum: 9db02a5ece9d56b81b65a73f8163743d
     Pseudo is Norm-conserving + core correction, Zval =  6.0
     Generated using ONCVPSP code by D. R. Hamann
     Using radial grid of  936 points,  5 beta functions with: 
                l(1) =   0
                l(2) =   0
                l(3) =   1
                l(4) =   1
                l(5) =   2

     PseudoPot. # 2 for H  read from file:
     ./H.upf
     MD5 check sum: e96aa7e3e4a958db16958554ea960e2a
     Pseudo is Norm-conserving, Zval =  1.0
     Generated using ONCVPSP code by D. R. Hamann
     Using radial grid of 1166 points,  3 beta functions with: 
                l(1) =   0
                l(2) =   0
                l(3) =   1

     atomic species   valence    mass     pseudopotential
        O              6.00    16.00000     O ( 1.00)
        H              1.00     1.00000     H ( 1.00)

     No symmetry found



   Cartesian axes

     site n.     atom                  positions (alat units)
         1           O   tau(   1) = (  -0.2559408   0.1062440  -0.0061138  )
         2           H   tau(   2) = (  -0.1741971   0.1096610  -0.0021589  )
         3           H   tau(   3) = (  -0.2713937   0.0427264   0.0412351  )
         4           O   tau(   4) = (  -0.0299727   0.1010635   0.0309899  )
         5           H   tau(   5) = (   0.0333695   0.0877866  -0.0177395  )
         6           H   tau(   6) = (   0.0020545   0.1462642   0.0902144  )

     number of k points=     1  Gaussian smearing, width (Ry)=  0.0100
                       cart. coord. in units 2pi/alat
        k(    1) = (   0.0000000   0.0000000   0.0000000), wk =   2.0000000

     Dense  grid:   366144 G-vectors     FFT dimensions: ( 120, 120, 120)

     Estimated max dynamical RAM per process >      24.54 MB

     Estimated total dynamical RAM >     392.71 MB

     Check: negative core charge=   -0.000005

     Initial potential from superposition of free atoms

     starting charge      16.0000, renormalised to      16.0000

     negative rho (up, down):  6.028E-04 0.000E+00
     Starting wfcs are   12 randomized atomic wfcs

     total cpu time spent up to now is        6.9 secs

     Self-consistent Calculation

     iteration #  1     ecut=    60.00 Ry     beta= 0.40
     Davidson diagonalization with overlap
     ethr =  1.00E-02,  avg # of iterations =  7.0

     negative rho (up, down):  3.468E-04 0.000E+00

     total cpu time spent up to now is        7.7 secs

     total energy              =     -70.87034855 Ry
     estimated scf accuracy    <       0.82701625 Ry

     iteration #  2     ecut=    60.00 Ry     beta= 0.40
     Davidson diagonalization with overlap
     ethr =  5.17E-03,  avg # of iterations =  2.0

     negative rho (up, down):  1.979E-04 0.000E+00

     total cpu time spent up to now is        8.4 secs

     total energy              =     -71.02184847 Ry
     estimated scf accuracy    <       0.04923318 Ry

     iteration #  3     ecut=    60.00 Ry     beta= 0.40
     Davidson diagonalization with overlap
     ethr =  3.08E-04,  avg # of iterations =  7.0

     negative rho (up, down):  2.276E-06 0.000E+00

     total cpu time spent up to now is        9.3 secs

     total energy              =     -71.01694117 Ry
     estimated scf accuracy    <       0.01728360 Ry

     iteration #  4     ecut=    60.00 Ry     beta= 0.40
     Davidson diagonalization with overlap
     ethr =  1.08E-04,  avg # of iterations =  8.0

     negative rho (up, down):  1.481E-06 0.000E+00

     total cpu time spent up to now is       10.1 secs

     total energy              =     -71.01787722 Ry
     estimated scf accuracy    <       0.00110242 Ry

     iteration #  5     ecut=    60.00 Ry     beta= 0.40
     Davidson diagonalization with overlap
     ethr =  6.89E-06,  avg # of iterations =  7.0

     negative rho (up, down):  4.471E-07 0.000E+00

     total cpu time spent up to now is       10.9 secs

     total energy              =     -71.01798663 Ry
     estimated scf accuracy    <       0.00009916 Ry

     iteration #  6     ecut=    60.00 Ry     beta= 0.40
     Davidson diagonalization with overlap
     ethr =  6.20E-07,  avg # of iterations =  6.0

     total cpu time spent up to now is       11.8 secs

     total energy              =     -71.01801364 Ry
     estimated scf accuracy    <       0.00010048 Ry

     iteration #  7     ecut=    60.00 Ry     beta= 0.40
     Davidson diagonalization with overlap
     ethr =  6.20E-07,  avg # of iterations =  2.0

     total cpu time spent up to now is       12.5 secs

     total energy              =     -71.01803350 Ry
     estimated scf accuracy    <       0.00000110 Ry

     iteration #  8     ecut=    60.00 Ry     beta= 0.40
     Davidson diagonalization with overlap
     ethr =  6.90E-09,  avg # of iterations =  2.0

     total cpu time spent up to now is       13.2 secs

     total energy              =     -71.01803358 Ry
     estimated scf accuracy    <       0.00000093 Ry

     iteration #  9     ecut=    60.00 Ry     beta= 0.40
     Davidson diagonalization with overlap
     ethr =  5.83E-09,  avg # of iterations =  2.0

     total cpu time spent up to now is       14.0 secs

     total energy              =     -71.01803382 Ry
     estimated scf accuracy    <       0.00000011 Ry

     iteration # 10     ecut=    60.00 Ry     beta= 0.40
     Davidson diagonalization with overlap
     ethr =  7.00E-10,  avg # of iterations =  2.0

     total cpu time spent up to now is       14.6 secs

     total energy              =     -71.01803382 Ry
     estimated scf accuracy    <       0.00000001 Ry

     iteration # 11     ecut=    60.00 Ry     beta= 0.40
     Davidson diagonalization with overlap
     ethr =  7.56E-11,  avg # of iterations =  2.0

     total cpu time spent up to now is       15.3 secs

     End of self-consistent calculation

          k = 0.0000 0.0000 0.0000 ( 45812 PWs)   bands (ev):

   -26.0639 -24.1679 -13.7093 -12.1101 -10.2940  -8.2119  -7.9367  -6.2039
    -1.3931  -0.3760   0.0036   0.0411

     the Fermi energy is    -2.2016 ev

!    total energy              =     -71.01803382 Ry
     estimated scf accuracy    <          1.1E-09 Ry
     smearing contrib. (-TS)   =      -0.00000000 Ry
     internal energy E=F+TS    =     -71.01803382 Ry

     The total energy is F=E-TS. E is the sum of the following terms:
     one-electron contribution =    -150.93308241 Ry
     hartree contribution      =      78.62233336 Ry
     xc contribution           =     -19.62347913 Ry
     ewald contribution        =      20.91619436 Ry

     convergence has been achieved in  11 iterations

     Forces acting on atoms (cartesian axes, Ry/au):

     atom    1 type  1   force =     0.00903192   -0.00793774    0.00645089
     atom    2 type  2   force =    -0.01271960    0.00357702   -0.00315567
     atom    3 type  2   force =    -0.00582078    0.00437613   -0.00449926
     atom    4 type  1   force =     0.03196072    0.00652677    0.00621833
     atom    5 type  2   force =    -0.01162293   -0.00162905    0.00052409
     atom    6 type  2   force =    -0.01082934   -0.00491312   -0.00553838
     The non-local contrib.  to forces
     atom    1 type  1   force =     1.27642206   -1.30270285    1.09866016
     atom    2 type  2   force =    -0.20186445   -0.01243470   -0.00664520
     atom    3 type  2   force =     0.04544568    0.16558728   -0.12297555
     atom    4 type  1   force =     1.95722338    0.71042857    0.18607603
     atom    5 type  2   force =    -0.16215962    0.03796130    0.13047315
     atom    6 type  2   force =    -0.07828156   -0.11746145   -0.15667302
     The ionic contribution  to forces
     atom    1 type  1   force =    -5.75058882    2.70142656   -2.76679810
     atom    2 type  2   force =     2.46905580    0.32780609   -0.18685348
     atom    3 type  2   force =    -1.27999709   -3.04621736    2.19564886
     atom    4 type  1   force =    -0.33376565   -1.42648286    0.18360705
     atom    5 type  2   force =     3.19060000   -0.71262542   -2.36235463
     atom    6 type  2   force =     1.70469576    2.15609298    2.93675031
     The local contribution  to forces
     atom    1 type  1   force =     4.51893155   -1.44430734    1.70614257
     atom    2 type  2   force =    -2.27994731   -0.31178833    0.19035997
     atom    3 type  2   force =     1.22868533    2.88500643   -2.07715194
     atom    4 type  1   force =    -1.53427280    0.74329817   -0.35823462
     atom    5 type  2   force =    -3.04010239    0.67304184    2.23241925
     atom    6 type  2   force =    -1.63728437   -2.04353541   -2.78559719
     The core correction contribution to forces
     atom    1 type  1   force =    -0.03578373    0.03762607   -0.03151738
     atom    2 type  2   force =     0.00000000    0.00000000    0.00000000
     atom    3 type  2   force =     0.00000000    0.00000000    0.00000000
     atom    4 type  1   force =    -0.05725708   -0.02070759   -0.00520605
     atom    5 type  2   force =     0.00000000    0.00000000    0.00000000
     atom    6 type  2   force =     0.00000000    0.00000000    0.00000000
     The Hubbard contrib.    to forces
     atom    1 type  1   force =     0.00000000    0.00000000    0.00000000
     atom    2 type  2   force =     0.00000000    0.00000000    0.00000000
     atom    3 type  2   force =     0.00000000    0.00000000    0.00000000
     atom    4 type  1   force =     0.00000000    0.00000000    0.00000000
     atom    5 type  2   force =     0.00000000    0.00000000    0.00000000
     atom    6 type  2   force =     0.00000000    0.00000000    0.00000000
     The SCF correction term to forces
     atom    1 type  1   force =     0.00000745    0.00002694   -0.00002098
     atom    2 type  2   force =    -0.00000707    0.00000108   -0.00000158
     atom    3 type  2   force =     0.00000188    0.00000690   -0.00000525
     atom    4 type  1   force =    -0.00001056   -0.00000240   -0.00000870
     atom    5 type  2   force =    -0.00000434    0.00000034    0.00000170
     atom    6 type  2   force =    -0.00000259   -0.00000213   -0.00000310

     Total force =     0.043091     Total SCF correction =     0.000040

     BFGS Geometry Optimization
     Energy error            =      0.0E+00 Ry
     Gradient error          =      3.2E-02 Ry/Bohr

     number of scf cycles    =   1
     number of bfgs steps    =   0

     energy             new  =     -71.0180338245 Ry

     new trust radius        =       0.0332077434 bohr
     new conv_thr            =       0.0000000100 Ry


ATOMIC_POSITIONS (angstrom)
O            -3.0665106331        1.2707278492       -0.0699524798
H            -2.0970962380        1.3178251201       -0.0275761320
H            -3.2598044646        0.5150321320        0.4924408765
O            -0.3427589498        1.2162157937        0.3751699464
H             0.3942836577        1.0525775362       -0.2125960662
H             0.0189236279        1.7525708736        1.0796416830



     Writing config-only to output data dir ./out/water.save/
     NEW-OLD atomic charge density approx. for the potential

     Check: negative core charge=   -0.000005

     negative rho (up, down):  5.667E-05 0.000E+00

     total cpu time spent up to now is       16.9 secs

     Self-consistent Calculation

     iteration #  1     ecut=    60.00 Ry     beta= 0.40
     Davidson diagonalization with overlap
     ethr =  1.00E-06,  avg # of iterations =  6.0

     negative rho (up, down):  2.728E-05 0.000E+00

     total cpu time spent up to now is       17.9 secs

     total energy              =     -71.01841544 Ry
     estimated scf accuracy    <       0.00088128 Ry

     iteration #  2     ecut=    60.00 Ry     beta= 0.40
     Davidson diagonalization with overlap
     ethr =  5.51E-06,  avg # of iterations =  2.0

     negative rho (up, down):  1.208E-05 0.000E+00

     total cpu time spent up to now is       18.6 secs

     total energy              =     -71.01857026 Ry
     estimated scf accuracy    <       0.00005937 Ry

     iteration #  3     ecut=    60.00 Ry     beta= 0.40
     Davidson diagonalization with overlap
     ethr =  3.71E-07,  avg # of iterations =  2.0

     negative rho (up, down):  4.851E-07 0.000E+00

     total cpu time spent up to now is       19.3 secs

     total energy              =     -71.01857028 Ry
     estimated scf accuracy    <       0.00001596 Ry

     iteration #  4     ecut=    60.00 Ry     beta= 0.40
     Davidson diagonalization with overlap
     ethr =  9.98E-08,  avg # of iterations =  2.0

     negative rho (up, down):  1.321E-07 0.000E+00

     total cpu time spent up to now is       19.9 secs

     total energy              =     -71.01857251 Ry
     estimated scf accuracy    <       0.00000191 Ry

     iteration #  5     ecut=    60.00 Ry     beta= 0.40
     Davidson diagonalization with overlap
     ethr =  1.19E-08,  avg # of iterations =  2.0

     total cpu time spent up to now is       20.6 secs

     total energy              =     -71.01857302 Ry
     estimated scf accuracy    <       0.00000035 Ry

     iteration #  6     ecut=    60.00 Ry     beta= 0.40
     Davidson diagonalization with overlap
     ethr =  2.20E-09,  avg # of iterations =  2.0

     total cpu time spent up to now is       21.3 secs

     End of self-consistent calculation

          k = 0.0000 0.0000 0.0000 ( 45812 PWs)   bands (ev):

   -26.1740 -24.2773 -13.9387 -12.2101 -10.2309  -8.2082  -7.9418  -6.2443
    -1.3403  -0.3539   0.0093   0.0572

     the Fermi energy is    -2.2013 ev

!    total energy              =     -71.01857306 Ry
     estimated scf accuracy    <          7.9E-09 Ry
     smearing contrib. (-TS)   =      -0.00000000 Ry
     internal energy E=F+TS    =     -71.01857306 Ry

     The total energy is F=E-TS. E is the sum of the following terms:
     one-electron contribution =    -151.30714186 Ry
     hartree contribution      =      78.79985436 Ry
     xc contribution           =     -19.66854998 Ry
     ewald contribution        =      21.15726443 Ry

     convergence has been achieved in   6 iterations

     Forces acting on atoms (cartesian axes, Ry/au):

     atom    1 type  1   force =    -0.00801017    0.00253901   -0.00284166
     atom    2 type  2   force =     0.00590141    0.00254556   -0.00089599
     atom    3 type  2   force =    -0.00631601   -0.00530554    0.00286618
     atom    4 type  1   force =    -0.00808611   -0.00720425   -0.00031097
     atom    5 type  2   force =     0.01192597   -0.00392649   -0.01311607
     atom    6 type  2   force =     0.00458490    0.01135171    0.01429851
     The non-local contrib.  to forces
     atom    1 type  1   force =     1.27983554   -1.29977864    1.09742143
     atom    2 type  2   force =    -0.21106860   -0.01453817   -0.00590479
     atom    3 type  2   force =     0.04900146    0.16978326   -0.12586044
     atom    4 type  1   force =     1.94929442    0.71579496    0.18128147
     atom    5 type  2   force =    -0.16874470    0.04205854    0.14130672
     atom    6 type  2   force =    -0.07905746   -0.12574705   -0.16829259
     The ionic contribution  to forces
     atom    1 type  1   force =    -5.76916723    2.70267867   -2.77304635
     atom    2 type  2   force =     2.57915116    0.35300531   -0.19338096
     atom    3 type  2   force =    -1.32068394   -3.08265479    2.21930887
     atom    4 type  1   force =    -0.42443432   -1.45412486    0.17424540
     atom    5 type  2   force =     3.24055825   -0.75817888   -2.47969617
     atom    6 type  2   force =     1.69457608    2.23927455    3.05256920
     The local contribution  to forces
     atom    1 type  1   force =     4.51633782   -1.43743181    1.70383843
     atom    2 type  2   force =    -2.36220181   -0.33591242    0.19840004
     atom    3 type  2   force =     1.26532998    2.90756758   -2.09056773
     atom    4 type  1   force =    -1.47752848    0.75147587   -0.35095585
     atom    5 type  2   force =    -3.05990787    0.71219536    2.32527936
     atom    6 type  2   force =    -1.61095819   -2.10216668   -2.86995802
     The core correction contribution to forces
     atom    1 type  1   force =    -0.03520254    0.03712192   -0.03108496
     atom    2 type  2   force =     0.00000000    0.00000000    0.00000000
     atom    3 type  2   force =     0.00000000    0.00000000    0.00000000
     atom    4 type  1   force =    -0.05545369   -0.02035096   -0.00486362
     atom    5 type  2   force =     0.00000000    0.00000000    0.00000000
     atom    6 type  2   force =     0.00000000    0.00000000    0.00000000
     The Hubbard contrib.    to forces
     atom    1 type  1   force =     0.00000000    0.00000000    0.00000000
     atom    2 type  2   force =     0.00000000    0.00000000    0.00000000
     atom    3 type  2   force =     0.00000000    0.00000000    0.00000000
     atom    4 type  1   force =     0.00000000    0.00000000    0.00000000
     atom    5 type  2   force =     0.00000000    0.00000000    0.00000000
     atom    6 type  2   force =     0.00000000    0.00000000    0.00000000
     The SCF correction term to forces
     atom    1 type  1   force =     0.00016411   -0.00004724    0.00004336
     atom    2 type  2   force =    -0.00000146   -0.00000527    0.00000328
     atom    3 type  2   force =     0.00001438    0.00000230   -0.00000096
     atom    4 type  1   force =     0.00001384    0.00000464   -0.00000481
     atom    5 type  2   force =    -0.00000183    0.00000238    0.00000758
     atom    6 type  2   force =     0.00000235   -0.00000521   -0.00000651

     Total force =     0.031598     Total SCF correction =     0.000178
     Energy error            =      5.4E-04 Ry
     Gradient error          =      1.4E-02 Ry/Bohr

     number of scf cycles    =   2
     number of bfgs steps    =   1

     energy             old  =     -71.0180338245 Ry
     energy             new  =     -71.0185730565 Ry

     CASE: energy            _new < energy            _old

     new trust radius        =       0.0115583990 bohr
     new conv_thr            =       0.0000000054 Ry


ATOMIC_POSITIONS (angstrom)
O            -3.0686537369        1.2709495253       -0.0704199802
H            -2.0960642819        1.3190875681       -0.0281915191
H            -3.2626613911        0.5134678084        0.4930934195
O            -0.3428624698        1.2141443525        0.3756158710
H             0.3976389304        1.0509808725       -0.2173915996
H             0.0196399494        1.7563191780        1.0844216362



     Writing config-only to output data dir ./out/water.save/
     NEW-OLD atomic charge density approx. for the potential

     Check: negative core charge=   -0.000005

     negative rho (up, down):  2.716E-05 0.000E+00

     total cpu time spent up to now is       22.9 secs

     Self-consistent Calculation

     iteration #  1     ecut=    60.00 Ry     beta= 0.40
     Davidson diagonalization with overlap
     ethr =  1.00E-06,  avg # of iterations =  4.0

     negative rho (up, down):  1.210E-05 0.000E+00

     total cpu time spent up to now is       23.7 secs

     total energy              =     -71.01893689 Ry
     estimated scf accuracy    <       0.00009832 Ry

     iteration #  2     ecut=    60.00 Ry     beta= 0.40
     Davidson diagonalization with overlap
     ethr =  6.14E-07,  avg # of iterations =  2.0

     negative rho (up, down):  4.401E-06 0.000E+00

     total cpu time spent up to now is       24.4 secs

     total energy              =     -71.01895215 Ry
     estimated scf accuracy    <       0.00000598 Ry

     iteration #  3     ecut=    60.00 Ry     beta= 0.40
     Davidson diagonalization with overlap
     ethr =  3.74E-08,  avg # of iterations =  2.0

     negative rho (up, down):  3.502E-08 0.000E+00

     total cpu time spent up to now is       25.0 secs

     total energy              =     -71.01895232 Ry
     estimated scf accuracy    <       0.00000166 Ry

     iteration #  4     ecut=    60.00 Ry     beta= 0.40
     Davidson diagonalization with overlap
     ethr =  1.04E-08,  avg # of iterations =  2.0

     total cpu time spent up to now is       25.7 secs

     total energy              =     -71.01895251 Ry
     estimated scf accuracy    <       0.00000014 Ry

     iteration #  5     ecut=    60.00 Ry     beta= 0.40
     Davidson diagonalization with overlap
     ethr =  8.91E-10,  avg # of iterations =  2.0

     total cpu time spent up to now is       26.4 secs

     total energy              =     -71.01895254 Ry
     estimated scf accuracy    <       0.00000002 Ry

     iteration #  6     ecut=    60.00 Ry     beta= 0.40
     Davidson diagonalization with overlap
     ethr =  1.17E-10,  avg # of iterations =  2.0

     total cpu time spent up to now is       27.0 secs

     End of self-consistent calculation

          k = 0.0000 0.0000 0.0000 ( 45812 PWs)   bands (ev):

   -26.1039 -24.2435 -13.8859 -12.1867 -10.2159  -8.1989  -7.9270  -6.2361
    -1.3566  -0.3608   0.0067   0.0504

     the Fermi energy is    -2.1985 ev

!    total energy              =     -71.01895254 Ry
     estimated scf accuracy    <          1.2E-09 Ry
     smearing contrib. (-TS)   =      -0.00000000 Ry
     internal energy E=F+TS    =     -71.01895254 Ry

     The total energy is F=E-TS. E is the sum of the following terms:
     one-electron contribution =    -151.05739497 Ry
     hartree contribution      =      78.68084875 Ry
     xc contribution           =     -19.65137198 Ry
     ewald contribution        =      21.00896566 Ry

     convergence has been achieved in   6 iterations

     Forces acting on atoms (cartesian axes, Ry/au):

     atom    1 type  1   force =    -0.00366834   -0.00004463   -0.00049317
     atom    2 type  2   force =     0.00036333    0.00177041   -0.00077326
     atom    3 type  2   force =    -0.00491777   -0.00197137    0.00042277
     atom    4 type  1   force =     0.00405049   -0.00221381    0.00236381
     atom    5 type  2   force =     0.00368290   -0.00131101   -0.00535986
     atom    6 type  2   force =     0.00048939    0.00377040    0.00383971
     The non-local contrib.  to forces
     atom    1 type  1   force =     1.27693556   -1.29723544    1.09569838
     atom    2 type  2   force =    -0.20846243   -0.01460995   -0.00571597
     atom    3 type  2   force =     0.04872346    0.16838819   -0.12477045
     atom    4 type  1   force =     1.93854641    0.72112451    0.17502723
     atom    5 type  2   force =    -0.16480655    0.04094070    0.13873741
     atom    6 type  2   force =    -0.07653137   -0.12304632   -0.16404538
     The ionic contribution  to forces
     atom    1 type  1   force =    -5.74147990    2.68969886   -2.76017833
     atom    2 type  2   force =     2.55440113    0.35621939   -0.19561989
     atom    3 type  2   force =    -1.31617276   -3.06865577    2.20832672
     atom    4 type  1   force =    -0.36514248   -1.45012499    0.19448107
     atom    5 type  2   force =     3.20037659   -0.74361501   -2.45617877
     atom    6 type  2   force =     1.66801740    2.21647752    3.00916920
     The local contribution  to forces
     atom    1 type  1   force =     4.49621418   -1.42972619    1.69519171
     atom    2 type  2   force =    -2.34559634   -0.33983534    0.20057934
     atom    3 type  2   force =     1.26251540    2.89830623   -2.08312076
     atom    4 type  1   force =    -1.51355290    0.74754051   -0.36233223
     atom    5 type  2   force =    -3.03190852    0.70136557    2.31209867
     atom    6 type  2   force =    -1.59101619   -2.08965833   -2.84126738
     The core correction contribution to forces
     atom    1 type  1   force =    -0.03537340    0.03722528   -0.03119805
     atom    2 type  2   force =     0.00000000    0.00000000    0.00000000
     atom    3 type  2   force =     0.00000000    0.00000000    0.00000000
     atom    4 type  1   force =    -0.05584913   -0.02078954   -0.00481425
     atom    5 type  2   force =     0.00000000    0.00000000    0.00000000
     atom    6 type  2   force =     0.00000000    0.00000000    0.00000000
     The Hubbard contrib.    to forces
     atom    1 type  1   force =     0.00000000    0.00000000    0.00000000
     atom    2 type  2   force =     0.00000000    0.00000000    0.00000000
     atom    3 type  2   force =     0.00000000    0.00000000    0.00000000
     atom    4 type  1   force =     0.00000000    0.00000000    0.00000000
     atom    5 type  2   force =     0.00000000    0.00000000    0.00000000
     atom    6 type  2   force =     0.00000000    0.00000000    0.00000000
     The SCF correction term to forces
     atom    1 type  1   force =     0.00001844   -0.00000285    0.00001091
     atom    2 type  2   force =     0.00000419    0.00000061    0.00000104
     atom    3 type  2   force =    -0.00000065   -0.00000573    0.00000503
     atom    4 type  1   force =     0.00003182    0.00003998    0.00001976
     atom    5 type  2   force =     0.00000460    0.00000201    0.00000059
     atom    6 type  2   force =     0.00000277    0.00000182    0.00000105

     Total force =     0.012080     Total SCF correction =     0.000060
     Energy error            =      3.8E-04 Ry
     Gradient error          =      5.4E-03 Ry/Bohr

     number of scf cycles    =   3
     number of bfgs steps    =   2

     energy             old  =     -71.0185730565 Ry
     energy             new  =     -71.0189525375 Ry

     CASE: energy            _new < energy            _old

     new trust radius        =       0.0135794374 bohr
     new conv_thr            =       0.0000000038 Ry


ATOMIC_POSITIONS (angstrom)
O            -3.0716540531        1.2702676382       -0.0704100877
H            -2.0965472317        1.3213464245       -0.0293476279
H            -3.2683192427        0.5116593859        0.4932722676
O            -0.3366219035        1.2121449792        0.3783062748
H             0.4008615378        1.0491572238       -0.2235500636
H             0.0193178934        1.7603736532        1.0888570646



     Writing config-only to output data dir ./out/water.save/
     NEW-OLD atomic charge density approx. for the potential

     Check: negative core charge=   -0.000005

     negative rho (up, down):  3.744E-05 0.000E+00

     total cpu time spent up to now is       28.6 secs

     Self-consistent Calculation

     iteration #  1     ecut=    60.00 Ry     beta= 0.40
     Davidson diagonalization with overlap
     ethr =  1.00E-06,  avg # of iterations =  5.0

     negative rho (up, down):  1.736E-05 0.000E+00

     total cpu time spent up to now is       29.6 secs

     total energy              =     -71.01915841 Ry
     estimated scf accuracy    <       0.00005424 Ry

     iteration #  2     ecut=    60.00 Ry     beta= 0.40
     Davidson diagonalization with overlap
     ethr =  3.39E-07,  avg # of iterations =  2.0

     negative rho (up, down):  4.240E-06 0.000E+00

     total cpu time spent up to now is       30.2 secs

     total energy              =     -71.01916246 Ry
     estimated scf accuracy    <       0.00001078 Ry

     iteration #  3     ecut=    60.00 Ry     beta= 0.40
     Davidson diagonalization with overlap
     ethr =  6.74E-08,  avg # of iterations =  2.0

     negative rho (up, down):  1.921E-07 0.000E+00

     total cpu time spent up to now is       30.9 secs

     total energy              =     -71.01916331 Ry
     estimated scf accuracy    <       0.00000169 Ry

     iteration #  4     ecut=    60.00 Ry     beta= 0.40
     Davidson diagonalization with overlap
     ethr =  1.06E-08,  avg # of iterations =  2.0

     total cpu time spent up to now is       31.5 secs

     total energy              =     -71.01916347 Ry
     estimated scf accuracy    <       0.00000015 Ry

     iteration #  5     ecut=    60.00 Ry     beta= 0.40
     Davidson diagonalization with overlap
     ethr =  9.28E-10,  avg # of iterations =  2.0

     total cpu time spent up to now is       32.2 secs

     total energy              =     -71.01916348 Ry
     estimated scf accuracy    <       0.00000003 Ry

     iteration #  6     ecut=    60.00 Ry     beta= 0.40
     Davidson diagonalization with overlap
     ethr =  1.60E-10,  avg # of iterations =  2.0

     total cpu time spent up to now is       32.8 secs

     End of self-consistent calculation

          k = 0.0000 0.0000 0.0000 ( 45812 PWs)   bands (ev):

   -26.0546 -24.2203 -13.8949 -12.1744 -10.1749  -8.1890  -7.9106  -6.2351
    -1.3618  -0.3629   0.0040   0.0467

     the Fermi energy is    -2.1956 ev

!    total energy              =     -71.01916349 Ry
     estimated scf accuracy    <          1.2E-09 Ry
     smearing contrib. (-TS)   =      -0.00000000 Ry
     internal energy E=F+TS    =     -71.01916349 Ry

     The total energy is F=E-TS. E is the sum of the following terms:
     one-electron contribution =    -150.78969967 Ry
     hartree contribution      =      78.55094041 Ry
     xc contribution           =     -19.64131096 Ry
     ewald contribution        =      20.86090673 Ry

     convergence has been achieved in   6 iterations

     Forces acting on atoms (cartesian axes, Ry/au):

     atom    1 type  1   force =    -0.00025991   -0.00111067    0.00066665
     atom    2 type  2   force =    -0.00410563    0.00037184   -0.00008940
     atom    3 type  2   force =    -0.00307835    0.00041186   -0.00124665
     atom    4 type  1   force =     0.00632164   -0.00181496    0.00128007
     atom    5 type  2   force =     0.00007449    0.00132255    0.00049858
     atom    6 type  2   force =     0.00104776    0.00081937   -0.00110925
     The non-local contrib.  to forces
     atom    1 type  1   force =     1.27362563   -1.29302282    1.09306418
     atom    2 type  2   force =    -0.20640765   -0.01517538   -0.00529854
     atom    3 type  2   force =     0.04911777    0.16740944   -0.12387858
     atom    4 type  1   force =     1.92020076    0.73458813    0.16301933
     atom    5 type  2   force =    -0.16143953    0.04055657    0.13884919
     atom    6 type  2   force =    -0.07390132   -0.12302964   -0.16285475
     The ionic contribution  to forces
     atom    1 type  1   force =    -5.69488738    2.67171643   -2.74301215
     atom    2 type  2   force =     2.54319113    0.36603120   -0.19927977
     atom    3 type  2   force =    -1.31777276   -3.05730323    2.19762298
     atom    4 type  1   force =    -0.32336263   -1.46826752    0.21563590
     atom    5 type  2   force =     3.15938880   -0.73530029   -2.46456168
     atom    6 type  2   force =     1.63344283    2.22312342    2.99359472
     The local contribution  to forces
     atom    1 type  1   force =     4.45643677   -1.41708004    1.68190102
     atom    2 type  2   force =    -2.34089765   -0.35047648    0.20450329
     atom    3 type  2   force =     1.26556306    2.89031526   -2.07497907
     atom    4 type  1   force =    -1.53480704    0.75317493   -0.37289715
     atom    5 type  2   force =    -2.99788717    0.69607497    2.32622808
     atom    6 type  2   force =    -1.55850413   -2.09926940   -2.83183908
     The core correction contribution to forces
     atom    1 type  1   force =    -0.03552186    0.03725635   -0.03126050
     atom    2 type  2   force =     0.00000000    0.00000000    0.00000000
     atom    3 type  2   force =     0.00000000    0.00000000    0.00000000
     atom    4 type  1   force =    -0.05567054   -0.02132049   -0.00444303
     atom    5 type  2   force =     0.00000000    0.00000000    0.00000000
     atom    6 type  2   force =     0.00000000    0.00000000    0.00000000
     The Hubbard contrib.    to forces
     atom    1 type  1   force =     0.00000000    0.00000000    0.00000000
     atom    2 type  2   force =     0.00000000    0.00000000    0.00000000
     atom    3 type  2   force =     0.00000000    0.00000000    0.00000000
     atom    4 type  1   force =     0.00000000    0.00000000    0.00000000
     atom    5 type  2   force =     0.00000000    0.00000000    0.00000000
     atom    6 type  2   force =     0.00000000    0.00000000    0.00000000
     The SCF correction term to forces
     atom    1 type  1   force =     0.00007777    0.00002806   -0.00001260
     atom    2 type  2   force =    -0.00000060    0.00000115   -0.00000109
     atom    3 type  2   force =     0.00000441   -0.00000097    0.00000133
     atom    4 type  1   force =    -0.00004806    0.00001864   -0.00002168
     atom    5 type  2   force =     0.00000322   -0.00000006   -0.00000372
     atom    6 type  2   force =     0.00000122    0.00000363    0.00000316

     Total force =     0.008936     Total SCF correction =     0.000101
     Energy error            =      2.1E-04 Ry
     Gradient error          =      6.3E-03 Ry/Bohr

     number of scf cycles    =   4
     number of bfgs steps    =   3

     energy             old  =     -71.0189525375 Ry
     energy             new  =     -71.0191634857 Ry

     CASE: energy            _new < energy            _old

     new trust radius        =       0.0173235241 bohr
     new conv_thr            =       0.0000000021 Ry


ATOMIC_POSITIONS (angstrom)
O            -3.0740306943        1.2690566893       -0.0699890391
H            -2.0998381608        1.3232750084       -0.0302565278
H            -3.2747300422        0.5105352812        0.4925721131
O            -0.3284321143        1.2088354365        0.3807582325
H             0.4037892146        1.0486679270       -0.2281007543
H             0.0202787971        1.7645789625        1.0921438035



     Writing config-only to output data dir ./out/water.save/
     NEW-OLD atomic charge density approx. for the potential

     Check: negative core charge=   -0.000005

     negative rho (up, down):  3.623E-05 0.000E+00

     total cpu time spent up to now is       34.4 secs

     Self-consistent Calculation

     iteration #  1     ecut=    60.00 Ry     beta= 0.40
     Davidson diagonalization with overlap
     ethr =  1.00E-06,  avg # of iterations =  5.0

     negative rho (up, down):  1.671E-05 0.000E+00

     total cpu time spent up to now is       35.4 secs

     total energy              =     -71.01928305 Ry
     estimated scf accuracy    <       0.00004905 Ry

     iteration #  2     ecut=    60.00 Ry     beta= 0.40
     Davidson diagonalization with overlap
     ethr =  3.07E-07,  avg # of iterations =  1.0

     negative rho (up, down):  6.039E-07 0.000E+00

     total cpu time spent up to now is       36.0 secs

     total energy              =     -71.01928340 Ry
     estimated scf accuracy    <       0.00001334 Ry

     iteration #  3     ecut=    60.00 Ry     beta= 0.40
     Davidson diagonalization with overlap
     ethr =  8.33E-08,  avg # of iterations =  2.0

     negative rho (up, down):  6.305E-08 0.000E+00

     total cpu time spent up to now is       36.7 secs

     total energy              =     -71.01928474 Ry
     estimated scf accuracy    <       0.00000064 Ry

     iteration #  4     ecut=    60.00 Ry     beta= 0.40
     Davidson diagonalization with overlap
     ethr =  3.99E-09,  avg # of iterations =  2.0

     total cpu time spent up to now is       37.3 secs

     total energy              =     -71.01928483 Ry
     estimated scf accuracy    <       0.00000009 Ry

     iteration #  5     ecut=    60.00 Ry     beta= 0.40
     Davidson diagonalization with overlap
     ethr =  5.54E-10,  avg # of iterations =  2.0

     total cpu time spent up to now is       38.0 secs

     total energy              =     -71.01928484 Ry
     estimated scf accuracy    <          7.5E-09 Ry

     iteration #  6     ecut=    60.00 Ry     beta= 0.40
     Davidson diagonalization with overlap
     ethr =  4.71E-11,  avg # of iterations =  2.0

     total cpu time spent up to now is       38.6 secs

     End of self-consistent calculation

          k = 0.0000 0.0000 0.0000 ( 45812 PWs)   bands (ev):

   -26.0174 -24.2276 -13.9094 -12.1892 -10.1340  -8.1854  -7.8933  -6.2446
    -1.3615  -0.3628   0.0024   0.0453

     the Fermi energy is    -2.1921 ev

!    total energy              =     -71.01928484 Ry
     estimated scf accuracy    <          1.1E-09 Ry
     smearing contrib. (-TS)   =      -0.00000000 Ry
     internal energy E=F+TS    =     -71.01928484 Ry

     The total energy is F=E-TS. E is the sum of the following terms:
     one-electron contribution =    -150.58611498 Ry
     hartree contribution      =      78.45107733 Ry
     xc contribution           =     -19.63842570 Ry
     ewald contribution        =      20.75417851 Ry

     convergence has been achieved in   6 iterations

     Forces acting on atoms (cartesian axes, Ry/au):

     atom    1 type  1   force =    -0.00193425   -0.00043844    0.00010297
     atom    2 type  2   force =    -0.00293627   -0.00079245    0.00080786
     atom    3 type  2   force =    -0.00170009    0.00079653   -0.00141726
     atom    4 type  1   force =     0.00409117   -0.00016011    0.00413134
     atom    5 type  2   force =     0.00110232    0.00270764    0.00221505
     atom    6 type  2   force =     0.00137712   -0.00211317   -0.00583996
     The non-local contrib.  to forces
     atom    1 type  1   force =     1.27208003   -1.28941737    1.09123077
     atom    2 type  2   force =    -0.20707980   -0.01599948   -0.00496408
     atom    3 type  2   force =     0.05016025    0.16730951   -0.12354884
     atom    4 type  1   force =     1.90417067    0.75361360    0.14724740
     atom    5 type  2   force =    -0.16013439    0.04015951    0.14058274
     atom    6 type  2   force =    -0.07117835   -0.12329351   -0.16145562
     The ionic contribution  to forces
     atom    1 type  1   force =    -5.66263614    2.65953912   -2.73011904
     atom    2 type  2   force =     2.56213336    0.37889901   -0.20004770
     atom    3 type  2   force =    -1.32784318   -3.05398636    2.19153786
     atom    4 type  1   force =    -0.30624314   -1.49630080    0.25256341
     atom    5 type  2   force =     3.13811444   -0.72361542   -2.48916119
     atom    6 type  2   force =     1.59647467    2.23546446    2.97522667
     The local contribution  to forces
     atom    1 type  1   force =     4.42405836   -1.40776420    1.67026388
     atom    2 type  2   force =    -2.35798265   -0.36368820    0.20583016
     atom    3 type  2   force =     1.27598907    2.88747743   -2.06939564
     atom    4 type  1   force =    -1.53848635    0.76455543   -0.39154686
     atom    5 type  2   force =    -2.97687376    0.68616787    2.35080254
     atom    6 type  2   force =    -1.52391377   -2.11427948   -2.81960199
     The core correction contribution to forces
     atom    1 type  1   force =    -0.03544722    0.03719803   -0.03126257
     atom    2 type  2   force =     0.00000000    0.00000000    0.00000000
     atom    3 type  2   force =     0.00000000    0.00000000    0.00000000
     atom    4 type  1   force =    -0.05533274   -0.02203609   -0.00414292
     atom    5 type  2   force =     0.00000000    0.00000000    0.00000000
     atom    6 type  2   force =     0.00000000    0.00000000    0.00000000
     The Hubbard contrib.    to forces
     atom    1 type  1   force =     0.00000000    0.00000000    0.00000000
     atom    2 type  2   force =     0.00000000    0.00000000    0.00000000
     atom    3 type  2   force =     0.00000000    0.00000000    0.00000000
     atom    4 type  1   force =     0.00000000    0.00000000    0.00000000
     atom    5 type  2   force =     0.00000000    0.00000000    0.00000000
     atom    6 type  2   force =     0.00000000    0.00000000    0.00000000
     The SCF correction term to forces
     atom    1 type  1   force =     0.00001876    0.00001004    0.00000158
     atom    2 type  2   force =     0.00000086    0.00000027    0.00000112
     atom    3 type  2   force =     0.00000180    0.00000000    0.00000100
     atom    4 type  1   force =    -0.00000922    0.00001180    0.00002196
     atom    5 type  2   force =     0.00000407   -0.00000027    0.00000261
     atom    6 type  2   force =     0.00000260   -0.00000059    0.00000262

     Total force =     0.010350     Total SCF correction =     0.000035
     Energy error            =      1.2E-04 Ry
     Gradient error          =      5.8E-03 Ry/Bohr

     number of scf cycles    =   5
     number of bfgs steps    =   4

     energy             old  =     -71.0191634857 Ry
     energy             new  =     -71.0192848399 Ry

     CASE: energy            _new < energy            _old

     new trust radius        =       0.0218749087 bohr
     new conv_thr            =       0.0000000012 Ry


ATOMIC_POSITIONS (angstrom)
O            -3.0786956302        1.2679629367       -0.0698959492
H            -2.1041342447        1.3247204203       -0.0305703846
H            -3.2825035526        0.5094676137        0.4912447219
O            -0.3189743534        1.2050501709        0.3862554524
H             0.4087333462        1.0497551398       -0.2321762168
H             0.0226114348        1.7679930234        1.0922702042



     Writing config-only to output data dir ./out/water.save/
     NEW-OLD atomic charge density approx. for the potential

     Check: negative core charge=   -0.000005

     negative rho (up, down):  4.385E-05 0.000E+00

     total cpu time spent up to now is       40.2 secs

     Self-consistent Calculation

     iteration #  1     ecut=    60.00 Ry     beta= 0.40
     Davidson diagonalization with overlap
     ethr =  1.00E-06,  avg # of iterations =  5.0

     negative rho (up, down):  2.068E-05 0.000E+00

     total cpu time spent up to now is       41.2 secs

     total energy              =     -71.01939888 Ry
     estimated scf accuracy    <       0.00009023 Ry

     iteration #  2     ecut=    60.00 Ry     beta= 0.40
     Davidson diagonalization with overlap
     ethr =  5.64E-07,  avg # of iterations =  2.0

     negative rho (up, down):  2.451E-06 0.000E+00

     total cpu time spent up to now is       41.8 secs

     total energy              =     -71.01940104 Ry
     estimated scf accuracy    <       0.00002115 Ry

     iteration #  3     ecut=    60.00 Ry     beta= 0.40
     Davidson diagonalization with overlap
     ethr =  1.32E-07,  avg # of iterations =  2.0

     negative rho (up, down):  2.160E-07 0.000E+00

     total cpu time spent up to now is       42.5 secs

     total energy              =     -71.01940330 Ry
     estimated scf accuracy    <       0.00000138 Ry

     iteration #  4     ecut=    60.00 Ry     beta= 0.40
     Davidson diagonalization with overlap
     ethr =  8.60E-09,  avg # of iterations =  1.0

     total cpu time spent up to now is       43.2 secs

     total energy              =     -71.01940339 Ry
     estimated scf accuracy    <       0.00000023 Ry

     iteration #  5     ecut=    60.00 Ry     beta= 0.40
     Davidson diagonalization with overlap
     ethr =  1.45E-09,  avg # of iterations =  2.0

     total cpu time spent up to now is       43.9 secs

     total energy              =     -71.01940342 Ry
     estimated scf accuracy    <          7.8E-09 Ry

     iteration #  6     ecut=    60.00 Ry     beta= 0.40
     Davidson diagonalization with overlap
     ethr =  4.85E-11,  avg # of iterations =  2.0

     total cpu time spent up to now is       44.6 secs

     total energy              =     -71.01940342 Ry
     estimated scf accuracy    <          1.2E-09 Ry

     iteration #  7     ecut=    60.00 Ry     beta= 0.40
     Davidson diagonalization with overlap
     ethr =  7.71E-12,  avg # of iterations =  2.0

     total cpu time spent up to now is       45.2 secs

     End of self-consistent calculation

          k = 0.0000 0.0000 0.0000 ( 45812 PWs)   bands (ev):

   -25.9977 -24.2343 -13.9273 -12.1977 -10.1006  -8.1912  -7.8789  -6.2553
    -1.3590  -0.3621   0.0008   0.0453

     the Fermi energy is    -2.1896 ev

!    total energy              =     -71.01940342 Ry
     estimated scf accuracy    <          6.5E-11 Ry
     smearing contrib. (-TS)   =      -0.00000000 Ry
     internal energy E=F+TS    =     -71.01940342 Ry

     The total energy is F=E-TS. E is the sum of the following terms:
     one-electron contribution =    -150.34644582 Ry
     hartree contribution      =      78.33148660 Ry
     xc contribution           =     -19.63693763 Ry
     ewald contribution        =      20.63249343 Ry

     convergence has been achieved in   7 iterations

     Forces acting on atoms (cartesian axes, Ry/au):

     atom    1 type  1   force =    -0.00079471    0.00067154   -0.00059129
     atom    2 type  2   force =    -0.00392211   -0.00183027    0.00148171
     atom    3 type  2   force =    -0.00072825    0.00061774   -0.00118048
     atom    4 type  1   force =     0.00215129   -0.00392615   -0.00185276
     atom    5 type  2   force =    -0.00102501    0.00431928    0.00583122
     atom    6 type  2   force =     0.00431880    0.00014787   -0.00368841
     The non-local contrib.  to forces
     atom    1 type  1   force =     1.27076588   -1.28739562    1.09029056
     atom    2 type  2   force =    -0.20675513   -0.01659434   -0.00480433
     atom    3 type  2   force =     0.05102473    0.16747319   -0.12334089
     atom    4 type  1   force =     1.88805518    0.78401197    0.12842215
     atom    5 type  2   force =    -0.15754287    0.03896430    0.14154444
     atom    6 type  2   force =    -0.07022885   -0.12616195   -0.16213328
     The ionic contribution  to forces
     atom    1 type  1   force =    -5.61494696    2.65343063   -2.72170600
     atom    2 type  2   force =     2.57497940    0.38840594   -0.19816151
     atom    3 type  2   force =    -1.33480267   -3.05335003    2.18578474
     atom    4 type  1   force =    -0.30552122   -1.56384099    0.27249040
     atom    5 type  2   force =     3.10274212   -0.70099926   -2.51022827
     atom    6 type  2   force =     1.57754933    2.27635371    2.97182064
     The local contribution  to forces
     atom    1 type  1   force =     4.37890850   -1.40250107    1.66209451
     atom    2 type  2   force =    -2.37212908   -0.37363206    0.20445197
     atom    3 type  2   force =     1.28306858    2.88650391   -2.06361958
     atom    4 type  1   force =    -1.52537852    0.79870091   -0.39934979
     atom    5 type  2   force =    -2.94620516    0.66636356    2.37451994
     atom    6 type  2   force =    -1.50298281   -2.15003449   -2.81337066
     The core correction contribution to forces
     atom    1 type  1   force =    -0.03549280    0.03715752   -0.03127477
     atom    2 type  2   force =     0.00000000    0.00000000    0.00000000
     atom    3 type  2   force =     0.00000000    0.00000000    0.00000000
     atom    4 type  1   force =    -0.05498028   -0.02279090   -0.00340651
     atom    5 type  2   force =     0.00000000    0.00000000    0.00000000
     atom    6 type  2   force =     0.00000000    0.00000000    0.00000000
     The Hubbard contrib.    to forces
     atom    1 type  1   force =     0.00000000    0.00000000    0.00000000
     atom    2 type  2   force =     0.00000000    0.00000000    0.00000000
     atom    3 type  2   force =     0.00000000    0.00000000    0.00000000
     atom    4 type  1   force =     0.00000000    0.00000000    0.00000000
     atom    5 type  2   force =     0.00000000    0.00000000    0.00000000
     atom    6 type  2   force =     0.00000000    0.00000000    0.00000000
     The SCF correction term to forces
     atom    1 type  1   force =    -0.00001042   -0.00001073    0.00000943
     atom    2 type  2   force =     0.00000160   -0.00000063    0.00000060
     atom    3 type  2   force =     0.00000001   -0.00000015    0.00000028
     atom    4 type  1   force =    -0.00000496    0.00000202   -0.00000398
     atom    5 type  2   force =    -0.00000018   -0.00000014    0.00000013
     atom    6 type  2   force =     0.00000004   -0.00000022   -0.00000008

     Total force =     0.011581     Total SCF correction =     0.000019
     Energy error            =      1.2E-04 Ry
     Gradient error          =      5.8E-03 Ry/Bohr

     number of scf cycles    =   6
     number of bfgs steps    =   5

     energy             old  =     -71.0192848399 Ry
     energy             new  =     -71.0194034172 Ry

     CASE: energy            _new < energy            _old

     new trust radius        =       0.0375325492 bohr
     new conv_thr            =       0.0000000012 Ry


ATOMIC_POSITIONS (angstrom)
O            -3.0872299648        1.2670569556       -0.0704955397
H            -2.1134372611        1.3257242353       -0.0299534441
H            -3.2957057268        0.5078064921        0.4885187918
O            -0.3030350551        1.1953269486        0.3930283193
H             0.4163627121        1.0545977745       -0.2347850394
H             0.0300822958        1.7744368988        1.0908147399



     Writing config-only to output data dir ./out/water.save/
     NEW-OLD atomic charge density approx. for the potential

     Check: negative core charge=   -0.000005

     negative rho (up, down):  9.428E-05 0.000E+00

     total cpu time spent up to now is       46.8 secs

     Self-consistent Calculation

     iteration #  1     ecut=    60.00 Ry     beta= 0.40
     Davidson diagonalization with overlap
     ethr =  1.00E-06,  avg # of iterations =  6.0

     negative rho (up, down):  4.793E-05 0.000E+00

     total cpu time spent up to now is       47.8 secs

     total energy              =     -71.01960921 Ry
     estimated scf accuracy    <       0.00027694 Ry

     iteration #  2     ecut=    60.00 Ry     beta= 0.40
     Davidson diagonalization with overlap
     ethr =  1.73E-06,  avg # of iterations =  1.0

     negative rho (up, down):  7.191E-06 0.000E+00

     total cpu time spent up to now is       48.5 secs

     total energy              =     -71.01961458 Ry
     estimated scf accuracy    <       0.00006351 Ry

     iteration #  3     ecut=    60.00 Ry     beta= 0.40
     Davidson diagonalization with overlap
     ethr =  3.97E-07,  avg # of iterations =  2.0

     negative rho (up, down):  6.751E-07 0.000E+00

     total cpu time spent up to now is       49.1 secs

     total energy              =     -71.01962162 Ry
     estimated scf accuracy    <       0.00000401 Ry

     iteration #  4     ecut=    60.00 Ry     beta= 0.40
     Davidson diagonalization with overlap
     ethr =  2.51E-08,  avg # of iterations =  1.0

     total cpu time spent up to now is       49.8 secs

     total energy              =     -71.01962192 Ry
     estimated scf accuracy    <       0.00000045 Ry

     iteration #  5     ecut=    60.00 Ry     beta= 0.40
     Davidson diagonalization with overlap
     ethr =  2.81E-09,  avg # of iterations =  2.0

     total cpu time spent up to now is       50.5 secs

     total energy              =     -71.01962197 Ry
     estimated scf accuracy    <       0.00000002 Ry

     iteration #  6     ecut=    60.00 Ry     beta= 0.40
     Davidson diagonalization with overlap
     ethr =  1.52E-10,  avg # of iterations =  2.0

     total cpu time spent up to now is       51.1 secs

     total energy              =     -71.01962197 Ry
     estimated scf accuracy    <          5.8E-09 Ry

     iteration #  7     ecut=    60.00 Ry     beta= 0.40
     Davidson diagonalization with overlap
     ethr =  3.60E-11,  avg # of iterations =  2.0

     total cpu time spent up to now is       51.8 secs

     End of self-consistent calculation

          k = 0.0000 0.0000 0.0000 ( 45812 PWs)   bands (ev):

   -25.9795 -24.2563 -13.9318 -12.2129 -10.0656  -8.2164  -7.8586  -6.2775
    -1.3534  -0.3606  -0.0031   0.0473

     the Fermi energy is    -2.1856 ev

!    total energy              =     -71.01962197 Ry
     estimated scf accuracy    <          3.3E-10 Ry
     smearing contrib. (-TS)   =      -0.00000000 Ry
     internal energy E=F+TS    =     -71.01962197 Ry

     The total energy is F=E-TS. E is the sum of the following terms:
     one-electron contribution =    -149.96049537 Ry
     hartree contribution      =      78.13679276 Ry
     xc contribution           =     -19.63621679 Ry
     ewald contribution        =      20.44029742 Ry

     convergence has been achieved in   7 iterations

     Forces acting on atoms (cartesian axes, Ry/au):

     atom    1 type  1   force =    -0.00113470    0.00089787   -0.00063904
     atom    2 type  2   force =    -0.00306940   -0.00283914    0.00209676
     atom    3 type  2   force =     0.00050505    0.00124872   -0.00153431
     atom    4 type  1   force =    -0.00377348   -0.00283822    0.00174246
     atom    5 type  2   force =     0.00275497    0.00427456    0.00360492
     atom    6 type  2   force =     0.00471755   -0.00074379   -0.00527079
     The non-local contrib.  to forces
     atom    1 type  1   force =     1.27064885   -1.28635967    1.09077141
     atom    2 type  2   force =    -0.20736473   -0.01712545   -0.00502942
     atom    3 type  2   force =     0.05212586    0.16738627   -0.12265317
     atom    4 type  1   force =     1.86767381    0.84193586    0.09032537
     atom    5 type  2   force =    -0.15746645    0.03635615    0.14519340
     atom    6 type  2   force =    -0.06801040   -0.12921207   -0.15996726
     The ionic contribution  to forces
     atom    1 type  1   force =    -5.54867528    2.65123513   -2.70978505
     atom    2 type  2   force =     2.60816561    0.39779199   -0.18526486
     atom    3 type  2   force =    -1.34379915   -3.04944250    2.17312996
     atom    4 type  1   force =    -0.34297504   -1.68166640    0.35044043
     atom    5 type  2   force =     3.08752131   -0.64993680   -2.56173563
     atom    6 type  2   force =     1.53976254    2.33201858    2.93321515
     The local contribution  to forces
     atom    1 type  1   force =     4.31245155   -1.40111204    1.64973589
     atom    2 type  2   force =    -2.40385460   -0.38348139    0.19239207
     atom    3 type  2   force =     1.29219683    2.88332678   -2.05200862
     atom    4 type  1   force =    -1.47408604    0.86140950   -0.43651792
     atom    5 type  2   force =    -2.92728330    0.61787770    2.42014811
     atom    6 type  2   force =    -1.46702020   -2.20352741   -2.77851659
     The core correction contribution to forces
     atom    1 type  1   force =    -0.03549190    0.03719446   -0.03137698
     atom    2 type  2   force =     0.00000000    0.00000000    0.00000000
     atom    3 type  2   force =     0.00000000    0.00000000    0.00000000
     atom    4 type  1   force =    -0.05439992   -0.02448674   -0.00248531
     atom    5 type  2   force =     0.00000000    0.00000000    0.00000000
     atom    6 type  2   force =     0.00000000    0.00000000    0.00000000
     The Hubbard contrib.    to forces
     atom    1 type  1   force =     0.00000000    0.00000000    0.00000000
     atom    2 type  2   force =     0.00000000    0.00000000    0.00000000
     atom    3 type  2   force =     0.00000000    0.00000000    0.00000000
     atom    4 type  1   force =     0.00000000    0.00000000    0.00000000
     atom    5 type  2   force =     0.00000000    0.00000000    0.00000000
     atom    6 type  2   force =     0.00000000    0.00000000    0.00000000
     The SCF correction term to forces
     atom    1 type  1   force =    -0.00005135   -0.00003783    0.00001729
     atom    2 type  2   force =     0.00000089   -0.00000211    0.00000057
     atom    3 type  2   force =    -0.00000193    0.00000036   -0.00000087
     atom    4 type  1   force =     0.00003028   -0.00000825   -0.00001851
     atom    5 type  2   force =    -0.00000001   -0.00000031    0.00000065
     atom    6 type  2   force =     0.00000218   -0.00000071   -0.00000050

     Total force =     0.011972     Total SCF correction =     0.000076
     Energy error            =      2.2E-04 Ry
     Gradient error          =      5.3E-03 Ry/Bohr

     number of scf cycles    =   7
     number of bfgs steps    =   6

     energy             old  =     -71.0194034172 Ry
     energy             new  =     -71.0196219718 Ry

     CASE: energy            _new < energy            _old

     new trust radius        =       0.0412858041 bohr
     new conv_thr            =       0.0000000022 Ry


ATOMIC_POSITIONS (angstrom)
O            -3.0973981350        1.2663717264       -0.0713897658
H            -2.1255795120        1.3253393724       -0.0281579371
H            -3.3102684388        0.5067425522        0.4845255268
O            -0.2873931771        1.1832546514        0.4023505960
H             0.4268721159        1.0622072594       -0.2362526798
H             0.0408041472        1.7810337431        1.0860520878



     Writing config-only to output data dir ./out/water.save/
     NEW-OLD atomic charge density approx. for the potential

     Check: negative core charge=   -0.000005

     negative rho (up, down):  1.231E-04 0.000E+00

     total cpu time spent up to now is       53.4 secs

     Self-consistent Calculation

     iteration #  1     ecut=    60.00 Ry     beta= 0.40
     Davidson diagonalization with overlap
     ethr =  1.00E-06,  avg # of iterations =  7.0

     negative rho (up, down):  6.371E-05 0.000E+00

     total cpu time spent up to now is       54.5 secs

     total energy              =     -71.01987408 Ry
     estimated scf accuracy    <       0.00035028 Ry

     iteration #  2     ecut=    60.00 Ry     beta= 0.40
     Davidson diagonalization with overlap
     ethr =  2.19E-06,  avg # of iterations =  1.0

     negative rho (up, down):  8.851E-06 0.000E+00

     total cpu time spent up to now is       55.1 secs

     total energy              =     -71.01988087 Ry
     estimated scf accuracy    <       0.00008312 Ry

     iteration #  3     ecut=    60.00 Ry     beta= 0.40
     Davidson diagonalization with overlap
     ethr =  5.19E-07,  avg # of iterations =  2.0

     negative rho (up, down):  3.779E-07 0.000E+00

     total cpu time spent up to now is       55.8 secs

     total energy              =     -71.01988970 Ry
     estimated scf accuracy    <       0.00000509 Ry

     iteration #  4     ecut=    60.00 Ry     beta= 0.40
     Davidson diagonalization with overlap
     ethr =  3.18E-08,  avg # of iterations =  2.0

     total cpu time spent up to now is       56.5 secs

     total energy              =     -71.01989031 Ry
     estimated scf accuracy    <       0.00000033 Ry

     iteration #  5     ecut=    60.00 Ry     beta= 0.40
     Davidson diagonalization with overlap
     ethr =  2.09E-09,  avg # of iterations =  1.0

     total cpu time spent up to now is       57.1 secs

     total energy              =     -71.01989031 Ry
     estimated scf accuracy    <       0.00000006 Ry

     iteration #  6     ecut=    60.00 Ry     beta= 0.40
     Davidson diagonalization with overlap
     ethr =  3.55E-10,  avg # of iterations =  2.0

     total cpu time spent up to now is       57.8 secs

     total energy              =     -71.01989032 Ry
     estimated scf accuracy    <       0.00000001 Ry

     iteration #  7     ecut=    60.00 Ry     beta= 0.40
     Davidson diagonalization with overlap
     ethr =  6.46E-11,  avg # of iterations =  2.0

     total cpu time spent up to now is       58.5 secs

     End of self-consistent calculation

          k = 0.0000 0.0000 0.0000 ( 45812 PWs)   bands (ev):

   -25.9597 -24.2954 -13.8924 -12.2380 -10.0513  -8.2548  -7.8377  -6.3052
    -1.3499  -0.3608  -0.0067   0.0501

     the Fermi energy is    -2.1807 ev

!    total energy              =     -71.01989032 Ry
     estimated scf accuracy    <          1.1E-09 Ry
     smearing contrib. (-TS)   =      -0.00000000 Ry
     internal energy E=F+TS    =     -71.01989032 Ry

     The total energy is F=E-TS. E is the sum of the following terms:
     one-electron contribution =    -149.55040314 Ry
     hartree contribution      =      77.92861204 Ry
     xc contribution           =     -19.63565327 Ry
     ewald contribution        =      20.23755404 Ry

     convergence has been achieved in   7 iterations

     Forces acting on atoms (cartesian axes, Ry/au):

     atom    1 type  1   force =    -0.00282646    0.00190709   -0.00140871
     atom    2 type  2   force =    -0.00014922   -0.00322360    0.00244994
     atom    3 type  2   force =     0.00088210    0.00052188   -0.00091002
     atom    4 type  1   force =    -0.00400142   -0.00313583    0.00036012
     atom    5 type  2   force =     0.00163591    0.00403022    0.00368386
     atom    6 type  2   force =     0.00445909   -0.00009976   -0.00417519
     The non-local contrib.  to forces
     atom    1 type  1   force =     1.27126896   -1.28853443    1.09295517
     atom    2 type  2   force =    -0.20895434   -0.01736753   -0.00565124
     atom    3 type  2   force =     0.05332292    0.16794117   -0.12228583
     atom    4 type  1   force =     1.84844948    0.91456375    0.04627509
     atom    5 type  2   force =    -0.15598833    0.03200600    0.14702229
     atom    6 type  2   force =    -0.06719099   -0.13343208   -0.15717449
     The ionic contribution  to forces
     atom    1 type  1   force =    -5.48658446    2.66201456   -2.70717201
     atom    2 type  2   force =     2.65341991    0.40233590   -0.16622918
     atom    3 type  2   force =    -1.35476067   -3.05215295    2.16237218
     atom    4 type  1   force =    -0.38841599   -1.84144181    0.42761228
     atom    5 type  2   force =     3.05841636   -0.57490074   -2.59792925
     atom    6 type  2   force =     1.51792485    2.40414504    2.88134597
     The local contribution  to forces
     atom    1 type  1   force =     4.24789459   -1.40876831    1.64421951
     atom    2 type  2   force =    -2.44462435   -0.38816657    0.17432731
     atom    3 type  2   force =     1.30232106    2.88476242   -2.04100074
     atom    4 type  1   force =    -1.41001689    0.95023959   -0.47227587
     atom    5 type  2   force =    -2.90078429    0.54694751    2.45458695
     atom    6 type  2   force =    -1.44626938   -2.27078559   -2.72834226
     The core correction contribution to forces
     atom    1 type  1   force =    -0.03539257    0.03724230   -0.03142764
     atom    2 type  2   force =     0.00000000    0.00000000    0.00000000
     atom    3 type  2   force =     0.00000000    0.00000000    0.00000000
     atom    4 type  1   force =    -0.05397775   -0.02649261   -0.00123194
     atom    5 type  2   force =     0.00000000    0.00000000    0.00000000
     atom    6 type  2   force =     0.00000000    0.00000000    0.00000000
     The Hubbard contrib.    to forces
     atom    1 type  1   force =     0.00000000    0.00000000    0.00000000
     atom    2 type  2   force =     0.00000000    0.00000000    0.00000000
     atom    3 type  2   force =     0.00000000    0.00000000    0.00000000
     atom    4 type  1   force =     0.00000000    0.00000000    0.00000000
     atom    5 type  2   force =     0.00000000    0.00000000    0.00000000
     atom    6 type  2   force =     0.00000000    0.00000000    0.00000000
     The SCF correction term to forces
     atom    1 type  1   force =    -0.00001282   -0.00002251    0.00001503
     atom    2 type  2   force =     0.00000972   -0.00000087    0.00000181
     atom    3 type  2   force =    -0.00000105   -0.00000423    0.00000313
     atom    4 type  1   force =    -0.00004011    0.00001977   -0.00002067
     atom    5 type  2   force =    -0.00000766    0.00000197    0.00000264
     atom    6 type  2   force =    -0.00000523   -0.00000261   -0.00000565

     Total force =     0.011300     Total SCF correction =     0.000060
     Energy error            =      2.7E-04 Ry
     Gradient error          =      4.5E-03 Ry/Bohr

     number of scf cycles    =   8
     number of bfgs steps    =   7

     energy             old  =     -71.0196219718 Ry
     energy             new  =     -71.0198903225 Ry

     CASE: energy            _new < energy            _old

     new trust radius        =       0.0619287062 bohr
     new conv_thr            =       0.0000000027 Ry


ATOMIC_POSITIONS (angstrom)
O            -3.1149846499        1.2667052114       -0.0737577964
H            -2.1427561912        1.3228510283       -0.0239741628
H            -3.3314834560        0.5052249380        0.4782138727
O            -0.2649619927        1.1636729454        0.4160383364
H             0.4423102207        1.0759318360       -0.2356864166
H             0.0589130692        1.7905633458        1.0762939945



     Writing config-only to output data dir ./out/water.save/
     NEW-OLD atomic charge density approx. for the potential

     Check: negative core charge=   -0.000005

     negative rho (up, down):  2.093E-04 0.000E+00

     total cpu time spent up to now is       60.1 secs

     Self-consistent Calculation

     iteration #  1     ecut=    60.00 Ry     beta= 0.40
     Davidson diagonalization with overlap
     ethr =  1.00E-06,  avg # of iterations =  7.0

     negative rho (up, down):  1.114E-04 0.000E+00

     total cpu time spent up to now is       61.2 secs

     total energy              =     -71.02016486 Ry
     estimated scf accuracy    <       0.00084560 Ry

     iteration #  2     ecut=    60.00 Ry     beta= 0.40
     Davidson diagonalization with overlap
     ethr =  5.28E-06,  avg # of iterations =  1.0

     negative rho (up, down):  2.121E-05 0.000E+00

     total cpu time spent up to now is       61.8 secs

     total energy              =     -71.02018848 Ry
     estimated scf accuracy    <       0.00019451 Ry

     iteration #  3     ecut=    60.00 Ry     beta= 0.40
     Davidson diagonalization with overlap
     ethr =  1.22E-06,  avg # of iterations =  2.0

     negative rho (up, down):  2.969E-06 0.000E+00

     total cpu time spent up to now is       62.5 secs

     total energy              =     -71.02020971 Ry
     estimated scf accuracy    <       0.00001321 Ry

     iteration #  4     ecut=    60.00 Ry     beta= 0.40
     Davidson diagonalization with overlap
     ethr =  8.26E-08,  avg # of iterations =  2.0

     total cpu time spent up to now is       63.1 secs

     total energy              =     -71.02021090 Ry
     estimated scf accuracy    <       0.00000149 Ry

     iteration #  5     ecut=    60.00 Ry     beta= 0.40
     Davidson diagonalization with overlap
     ethr =  9.29E-09,  avg # of iterations =  2.0

     total cpu time spent up to now is       63.8 secs

     total energy              =     -71.02021104 Ry
     estimated scf accuracy    <       0.00000010 Ry

     iteration #  6     ecut=    60.00 Ry     beta= 0.40
     Davidson diagonalization with overlap
     ethr =  6.28E-10,  avg # of iterations =  2.0

     total cpu time spent up to now is       64.5 secs

     total energy              =     -71.02021105 Ry
     estimated scf accuracy    <       0.00000001 Ry

     iteration #  7     ecut=    60.00 Ry     beta= 0.40
     Davidson diagonalization with overlap
     ethr =  9.37E-11,  avg # of iterations =  2.0

     total cpu time spent up to now is       65.2 secs

     End of self-consistent calculation

          k = 0.0000 0.0000 0.0000 ( 45812 PWs)   bands (ev):

   -25.9474 -24.3359 -13.8069 -12.2434 -10.0617  -8.3244  -7.8164  -6.3401
    -1.3477  -0.3623  -0.0135   0.0554

     the Fermi energy is    -2.1745 ev

!    total energy              =     -71.02021105 Ry
     estimated scf accuracy    <          1.2E-09 Ry
     smearing contrib. (-TS)   =      -0.00000000 Ry
     internal energy E=F+TS    =     -71.02021105 Ry

     The total energy is F=E-TS. E is the sum of the following terms:
     one-electron contribution =    -148.89705202 Ry
     hartree contribution      =      77.59606380 Ry
     xc contribution           =     -19.63132442 Ry
     ewald contribution        =      19.91210159 Ry

     convergence has been achieved in   7 iterations

     Forces acting on atoms (cartesian axes, Ry/au):

     atom    1 type  1   force =     0.00048238    0.00195985   -0.00093526
     atom    2 type  2   force =    -0.00128390   -0.00319345    0.00203892
     atom    3 type  2   force =     0.00061365    0.00033797   -0.00073546
     atom    4 type  1   force =    -0.00218239   -0.00072757    0.00115822
     atom    5 type  2   force =     0.00060368    0.00206153    0.00126104
     atom    6 type  2   force =     0.00176657   -0.00043833   -0.00278746
     The non-local contrib.  to forces
     atom    1 type  1   force =     1.27154491   -1.29639502    1.09819117
     atom    2 type  2   force =    -0.20870916   -0.01670192   -0.00707460
     atom    3 type  2   force =     0.05411947    0.16841732   -0.12143532
     atom    4 type  1   force =     1.81974064    1.02611613   -0.02270919
     atom    5 type  2   force =    -0.15478897    0.02459376    0.14956178
     atom    6 type  2   force =    -0.06646648   -0.13925932   -0.15144835
     The ionic contribution  to forces
     atom    1 type  1   force =    -5.38188129    2.69135572   -2.70804019
     atom    2 type  2   force =     2.69310829    0.39448457   -0.13044386
     atom    3 type  2   force =    -1.35939119   -3.05417490    2.14375755
     atom    4 type  1   force =    -0.46806803   -2.08951503    0.55696835
     atom    5 type  2   force =     3.02512795   -0.45052488   -2.64857155
     atom    6 type  2   force =     1.49110427    2.50837452    2.78632971
     The local contribution  to forces
     atom    1 type  1   force =     4.14638806   -1.43038161    1.64045809
     atom    2 type  2   force =    -2.48566771   -0.38094722    0.13955000
     atom    3 type  2   force =     1.30590041    2.88611986   -2.02306229
     atom    4 type  1   force =    -1.30102566    1.09238505   -0.53375347
     atom    5 type  2   force =    -2.86972810    0.42801930    2.50026717
     atom    6 type  2   force =    -1.42286288   -2.36953067   -2.63767918
     The core correction contribution to forces
     atom    1 type  1   force =    -0.03548529    0.03745582   -0.03157577
     atom    2 type  2   force =     0.00000000    0.00000000    0.00000000
     atom    3 type  2   force =     0.00000000    0.00000000    0.00000000
     atom    4 type  1   force =    -0.05285332   -0.02971021    0.00066164
     atom    5 type  2   force =     0.00000000    0.00000000    0.00000000
     atom    6 type  2   force =     0.00000000    0.00000000    0.00000000
     The Hubbard contrib.    to forces
     atom    1 type  1   force =     0.00000000    0.00000000    0.00000000
     atom    2 type  2   force =     0.00000000    0.00000000    0.00000000
     atom    3 type  2   force =     0.00000000    0.00000000    0.00000000
     atom    4 type  1   force =     0.00000000    0.00000000    0.00000000
     atom    5 type  2   force =     0.00000000    0.00000000    0.00000000
     atom    6 type  2   force =     0.00000000    0.00000000    0.00000000
     The SCF correction term to forces
     atom    1 type  1   force =    -0.00007141   -0.00004815    0.00002452
     atom    2 type  2   force =    -0.00000273   -0.00000196    0.00000045
     atom    3 type  2   force =    -0.00000245    0.00000261   -0.00000232
     atom    4 type  1   force =     0.00003657    0.00002341   -0.00001604
     atom    5 type  2   force =     0.00000539    0.00000027   -0.00000329
     atom    6 type  2   force =     0.00000425    0.00000406    0.00000342

     Total force =     0.006775     Total SCF correction =     0.000101
     Energy error            =      3.2E-04 Ry
     Gradient error          =      3.2E-03 Ry/Bohr

     number of scf cycles    =   9
     number of bfgs steps    =   8

     energy             old  =     -71.0198903225 Ry
     energy             new  =     -71.0202110527 Ry

     CASE: energy            _new < energy            _old

     new trust radius        =       0.0394106163 bohr
     new conv_thr            =       0.0000000032 Ry


ATOMIC_POSITIONS (angstrom)
O            -3.1253193565        1.2683276762       -0.0758834993
H            -2.1550918297        1.3190480989       -0.0199384156
H            -3.3447704060        0.5044152971        0.4736982573
O            -0.2514441087        1.1509001325        0.4254755730
H             0.4522215205        1.0859888285       -0.2344438133
H             0.0714411805        1.7962692715        1.0682197259



     Writing config-only to output data dir ./out/water.save/
     NEW-OLD atomic charge density approx. for the potential

     Check: negative core charge=   -0.000005

     negative rho (up, down):  1.314E-04 0.000E+00

     total cpu time spent up to now is       66.8 secs

     Self-consistent Calculation

     iteration #  1     ecut=    60.00 Ry     beta= 0.40
     Davidson diagonalization with overlap
     ethr =  1.00E-06,  avg # of iterations =  6.0

     negative rho (up, down):  6.821E-05 0.000E+00

     total cpu time spent up to now is       67.8 secs

     total energy              =     -71.02028142 Ry
     estimated scf accuracy    <       0.00032439 Ry

     iteration #  2     ecut=    60.00 Ry     beta= 0.40
     Davidson diagonalization with overlap
     ethr =  2.03E-06,  avg # of iterations =  1.0

     negative rho (up, down):  9.131E-06 0.000E+00

     total cpu time spent up to now is       68.4 secs

     total energy              =     -71.02028860 Ry
     estimated scf accuracy    <       0.00008174 Ry

     iteration #  3     ecut=    60.00 Ry     beta= 0.40
     Davidson diagonalization with overlap
     ethr =  5.11E-07,  avg # of iterations =  2.0

     negative rho (up, down):  1.087E-06 0.000E+00

     total cpu time spent up to now is       69.1 secs

     total energy              =     -71.02029652 Ry
     estimated scf accuracy    <       0.00000470 Ry

     iteration #  4     ecut=    60.00 Ry     beta= 0.40
     Davidson diagonalization with overlap
     ethr =  2.94E-08,  avg # of iterations =  2.0

     total cpu time spent up to now is       69.8 secs

     total energy              =     -71.02029711 Ry
     estimated scf accuracy    <       0.00000058 Ry

     iteration #  5     ecut=    60.00 Ry     beta= 0.40
     Davidson diagonalization with overlap
     ethr =  3.61E-09,  avg # of iterations =  2.0

     total cpu time spent up to now is       70.4 secs

     total energy              =     -71.02029715 Ry
     estimated scf accuracy    <       0.00000004 Ry

     iteration #  6     ecut=    60.00 Ry     beta= 0.40
     Davidson diagonalization with overlap
     ethr =  2.32E-10,  avg # of iterations =  2.0

     total cpu time spent up to now is       71.1 secs

     total energy              =     -71.02029716 Ry
     estimated scf accuracy    <          5.2E-09 Ry

     iteration #  7     ecut=    60.00 Ry     beta= 0.40
     Davidson diagonalization with overlap
     ethr =  3.22E-11,  avg # of iterations =  2.0

     total cpu time spent up to now is       71.8 secs

     End of self-consistent calculation

          k = 0.0000 0.0000 0.0000 ( 45812 PWs)   bands (ev):

   -25.9413 -24.3720 -13.7292 -12.2456 -10.0822  -8.3789  -7.8045  -6.3655
    -1.3477  -0.3644  -0.0196   0.0594

     the Fermi energy is    -2.1703 ev

!    total energy              =     -71.02029716 Ry
     estimated scf accuracy    <          1.7E-10 Ry
     smearing contrib. (-TS)   =      -0.00000000 Ry
     internal energy E=F+TS    =     -71.02029716 Ry

     The total energy is F=E-TS. E is the sum of the following terms:
     one-electron contribution =    -148.51003745 Ry
     hartree contribution      =      77.39783702 Ry
     xc contribution           =     -19.62908935 Ry
     ewald contribution        =      19.72099261 Ry

     convergence has been achieved in   7 iterations

     Forces acting on atoms (cartesian axes, Ry/au):

     atom    1 type  1   force =    -0.00182138   -0.00067106    0.00089104
     atom    2 type  2   force =     0.00220122   -0.00223589    0.00153596
     atom    3 type  2   force =     0.00026961    0.00204669   -0.00199331
     atom    4 type  1   force =     0.00156170    0.00076619   -0.00040477
     atom    5 type  2   force =    -0.00181713    0.00013208    0.00039862
     atom    6 type  2   force =    -0.00039401   -0.00003801   -0.00042754
     The non-local contrib.  to forces
     atom    1 type  1   force =     1.27226124   -1.30570579    1.10236814
     atom    2 type  2   force =    -0.21037992   -0.01558690   -0.00857563
     atom    3 type  2   force =     0.05440048    0.16801423   -0.12022541
     atom    4 type  1   force =     1.80139768    1.09791642   -0.06723357
     atom    5 type  2   force =    -0.15345849    0.01930878    0.15029901
     atom    6 type  2   force =    -0.06666087   -0.14325403   -0.14743907
     The ionic contribution  to forces
[...]
     atom    6 type  2   force =     1.26157052    3.14187845    2.18318486
     The local contribution  to forces
     atom    1 type  1   force =     3.70674875   -1.88862201    1.70807922
     atom    2 type  2   force =    -2.33486238    0.39377630   -0.50877263
     atom    3 type  2   force =     2.13384407    2.81724076   -1.38573542
     atom    4 type  1   force =    -1.82083036    1.76515421   -1.23844947
     atom    5 type  2   force =    -2.21348165   -0.06434979    3.10545940
     atom    6 type  2   force =    -1.20946681   -2.96727671   -2.06691464
     The core correction contribution to forces
     atom    1 type  1   force =    -0.02074619    0.04702741   -0.03107120
     atom    2 type  2   force =     0.00000000    0.00000000    0.00000000
     atom    3 type  2   force =     0.00000000    0.00000000    0.00000000
     atom    4 type  1   force =    -0.03738032   -0.04510493    0.01781829
     atom    5 type  2   force =     0.00000000    0.00000000    0.00000000
     atom    6 type  2   force =     0.00000000    0.00000000    0.00000000
     The Hubbard contrib.    to forces
     atom    1 type  1   force =     0.00000000    0.00000000    0.00000000
     atom    2 type  2   force =     0.00000000    0.00000000    0.00000000
     atom    3 type  2   force =     0.00000000    0.00000000    0.00000000
     atom    4 type  1   force =     0.00000000    0.00000000    0.00000000
     atom    5 type  2   force =     0.00000000    0.00000000    0.00000000
     atom    6 type  2   force =     0.00000000    0.00000000    0.00000000
     The SCF correction term to forces
     atom    1 type  1   force =    -0.00000014   -0.00000137   -0.00000100
     atom    2 type  2   force =     0.00000036   -0.00000014   -0.00000012
     atom    3 type  2   force =     0.00000007   -0.00000024    0.00000012
     atom    4 type  1   force =    -0.00000023   -0.00000631   -0.00000560
     atom    5 type  2   force =    -0.00000017   -0.00000036    0.00000015
     atom    6 type  2   force =    -0.00000002   -0.00000016   -0.00000018

     Total force =     0.000381     Total SCF correction =     0.000009
     Energy error            =      1.3E-07 Ry
     Gradient error          =      1.9E-04 Ry/Bohr

     number of scf cycles    =  48
     number of bfgs steps    =  47

     energy             old  =     -71.0213848882 Ry
     energy             new  =     -71.0213850169 Ry

     CASE: energy            _new < energy            _old

     new trust radius        =       0.0009157679 bohr
     new conv_thr            =            1.0E-10 Ry


ATOMIC_POSITIONS (angstrom)
O            -3.0046398645        1.3039068190       -0.0579280097
H            -2.0625364526        1.1597246309        0.1549310670
H            -3.4591692016        0.5479626288        0.3322251770
O            -0.1957853923        1.0903678637        0.5100634507
H             0.3144901244        1.1422384968       -0.3089263628
H             0.0546777866        1.8807488656        1.0067625057



     Writing config-only to output data dir ./out/water.save/
     NEW-OLD atomic charge density approx. for the potential

     Check: negative core charge=   -0.000005

     negative rho (up, down):  1.137E-07 0.000E+00

     total cpu time spent up to now is      315.0 secs

     Self-consistent Calculation

     iteration #  1     ecut=    60.00 Ry     beta= 0.40
     Davidson diagonalization with overlap
     ethr =  1.00E-06,  avg # of iterations =  2.0

     Threshold (ethr) on eigenvalues was too large:
     Diagonalizing with lowered threshold

     Davidson diagonalization with overlap
     ethr =  5.35E-10,  avg # of iterations =  4.0

     negative rho (up, down):  1.999E-08 0.000E+00

     total cpu time spent up to now is      316.2 secs

     total energy              =     -71.02138523 Ry
     estimated scf accuracy    <       0.00000010 Ry

     iteration #  2     ecut=    60.00 Ry     beta= 0.40
     Davidson diagonalization with overlap
     ethr =  6.32E-10,  avg # of iterations =  1.0

     total cpu time spent up to now is      316.8 secs

     total energy              =     -71.02138523 Ry
     estimated scf accuracy    <       0.00000003 Ry

     iteration #  3     ecut=    60.00 Ry     beta= 0.40
     Davidson diagonalization with overlap
     ethr =  1.75E-10,  avg # of iterations =  2.0

     total cpu time spent up to now is      317.4 secs

     total energy              =     -71.02138523 Ry
     estimated scf accuracy    <          1.7E-09 Ry

     iteration #  4     ecut=    60.00 Ry     beta= 0.40
     Davidson diagonalization with overlap
     ethr =  1.06E-11,  avg # of iterations =  1.0

     total cpu time spent up to now is      318.1 secs

     total energy              =     -71.02138523 Ry
     estimated scf accuracy    <          2.6E-10 Ry

     iteration #  5     ecut=    60.00 Ry     beta= 0.40
     Davidson diagonalization with overlap
     ethr =  1.60E-12,  avg # of iterations =  2.0

     total cpu time spent up to now is      318.7 secs

     End of self-consistent calculation

          k = 0.0000 0.0000 0.0000 ( 45812 PWs)   bands (ev):

   -25.9825 -24.3531 -13.7488 -12.3050 -10.0433  -8.4640  -7.7769  -6.3764
    -1.3268  -0.3697  -0.0311   0.0697

     the Fermi energy is    -2.1664 ev

!    total energy              =     -71.02138523 Ry
     estimated scf accuracy    <          1.1E-11 Ry
     smearing contrib. (-TS)   =      -0.00000000 Ry
     internal energy E=F+TS    =     -71.02138523 Ry

     The total energy is F=E-TS. E is the sum of the following terms:
     one-electron contribution =    -149.36876368 Ry
     hartree contribution      =      77.82021106 Ry
     xc contribution           =     -19.63294207 Ry
     ewald contribution        =      20.16010945 Ry

     convergence has been achieved in   5 iterations

     Forces acting on atoms (cartesian axes, Ry/au):

     atom    1 type  1   force =     0.00006785    0.00009464   -0.00015660
     atom    2 type  2   force =    -0.00007513    0.00006610    0.00012226
     atom    3 type  2   force =    -0.00004835   -0.00025255    0.00003657
     atom    4 type  1   force =    -0.00001159    0.00019920    0.00018326
     atom    5 type  2   force =     0.00001230   -0.00002865   -0.00015360
     atom    6 type  2   force =     0.00005492   -0.00007874   -0.00003189
     The non-local contrib.  to forces
     atom    1 type  1   force =     0.76382847   -1.63864199    1.08176286
     atom    2 type  2   force =    -0.20161126    0.02514732   -0.04211438
     atom    3 type  2   force =     0.10671161    0.16615983   -0.08484055
     atom    4 type  1   force =     1.29074318    1.56896806   -0.62492935
     atom    5 type  2   force =    -0.11171273   -0.00551473    0.18512305
     atom    6 type  2   force =    -0.05210602   -0.17462618   -0.11629138
     The ionic contribution  to forces
     atom    1 type  1   force =    -4.44907645    3.48040337   -2.75891127
     atom    2 type  2   force =     2.53610913   -0.41971639    0.55210223
     atom    3 type  2   force =    -2.24177053   -2.98373349    1.46926655
     atom    4 type  1   force =     0.56726142   -3.28786954    1.84660323
     atom    5 type  2   force =     2.32431182    0.06924362   -3.29157681
     atom    6 type  2   force =     1.26316462    3.14167243    2.18251608
     The local contribution  to forces
     atom    1 type  1   force =     3.70605859   -1.88868729    1.70801927
     atom    2 type  2   force =    -2.33455426    0.39464872   -0.50990184
     atom    3 type  2   force =     2.13502904    2.81733460   -1.38442607
     atom    4 type  1   force =    -1.82061201    1.76421254   -1.23934938
     atom    5 type  2   force =    -2.21256797   -0.06374400    3.10626367
     atom    6 type  2   force =    -1.21098495   -2.96711187   -2.06629291
     The core correction contribution to forces
     atom    1 type  1   force =    -0.02072619    0.04703752   -0.03106408
     atom    2 type  2   force =     0.00000000    0.00000000    0.00000000
     atom    3 type  2   force =     0.00000000    0.00000000    0.00000000
     atom    4 type  1   force =    -0.03738691   -0.04509356    0.01783084
     atom    5 type  2   force =     0.00000000    0.00000000    0.00000000
     atom    6 type  2   force =     0.00000000    0.00000000    0.00000000
     The Hubbard contrib.    to forces
     atom    1 type  1   force =     0.00000000    0.00000000    0.00000000
     atom    2 type  2   force =     0.00000000    0.00000000    0.00000000
     atom    3 type  2   force =     0.00000000    0.00000000    0.00000000
     atom    4 type  1   force =     0.00000000    0.00000000    0.00000000
     atom    5 type  2   force =     0.00000000    0.00000000    0.00000000
     atom    6 type  2   force =     0.00000000    0.00000000    0.00000000
     The SCF correction term to forces
     atom    1 type  1   force =     0.00000221   -0.00000367    0.00000007
     atom    2 type  2   force =     0.00000004   -0.00000027   -0.00000029
     atom    3 type  2   force =     0.00000031   -0.00000020    0.00000010
     atom    4 type  1   force =     0.00000150   -0.00000501   -0.00000863
     atom    5 type  2   force =    -0.00000005   -0.00000024   -0.00000006
     atom    6 type  2   force =     0.00000005    0.00000017   -0.00000024

     Total force =     0.000489     Total SCF correction =     0.000011
     Energy error            =      2.2E-07 Ry
     Gradient error          =      2.5E-04 Ry/Bohr

     number of scf cycles    =  49
     number of bfgs steps    =  48

     energy             old  =     -71.0213850169 Ry
     energy             new  =     -71.0213852334 Ry

     CASE: energy            _new < energy            _old

     new trust radius        =       0.0013736519 bohr
     new conv_thr            =            1.0E-10 Ry


ATOMIC_POSITIONS (angstrom)
O            -3.0045052439        1.3036966344       -0.0579386189
H            -2.0625449037        1.1594114139        0.1554444814
H            -3.4594132881        0.5477626786        0.3316815820
O            -0.1957387653        1.0906727756        0.5103049063
H             0.3139209594        1.1423220258       -0.3090492905
H             0.0553182417        1.8810837765        1.0066847677



     Writing config-only to output data dir ./out/water.save/
     NEW-OLD atomic charge density approx. for the potential

     Check: negative core charge=   -0.000005

     negative rho (up, down):  4.341E-07 0.000E+00

     total cpu time spent up to now is      320.3 secs

     Self-consistent Calculation

     iteration #  1     ecut=    60.00 Ry     beta= 0.40
     Davidson diagonalization with overlap
     ethr =  1.00E-06,  avg # of iterations =  2.0

     Threshold (ethr) on eigenvalues was too large:
     Diagonalizing with lowered threshold

     Davidson diagonalization with overlap
     ethr =  1.10E-09,  avg # of iterations =  4.0

     negative rho (up, down):  9.104E-08 0.000E+00

     total cpu time spent up to now is      321.5 secs

     total energy              =     -71.02138557 Ry
     estimated scf accuracy    <       0.00000025 Ry

     iteration #  2     ecut=    60.00 Ry     beta= 0.40
     Davidson diagonalization with overlap
     ethr =  1.54E-09,  avg # of iterations =  1.0

     total cpu time spent up to now is      322.1 secs

     total energy              =     -71.02138558 Ry
     estimated scf accuracy    <       0.00000007 Ry

     iteration #  3     ecut=    60.00 Ry     beta= 0.40
     Davidson diagonalization with overlap
     ethr =  4.19E-10,  avg # of iterations =  2.0

     total cpu time spent up to now is      322.8 secs

     total energy              =     -71.02138559 Ry
     estimated scf accuracy    <          4.0E-09 Ry

     iteration #  4     ecut=    60.00 Ry     beta= 0.40
     Davidson diagonalization with overlap
     ethr =  2.48E-11,  avg # of iterations =  2.0

     total cpu time spent up to now is      323.4 secs

     total energy              =     -71.02138559 Ry
     estimated scf accuracy    <          4.0E-10 Ry

     iteration #  5     ecut=    60.00 Ry     beta= 0.40
     Davidson diagonalization with overlap
     ethr =  2.51E-12,  avg # of iterations =  2.0

     total cpu time spent up to now is      324.0 secs

     End of self-consistent calculation

          k = 0.0000 0.0000 0.0000 ( 45812 PWs)   bands (ev):

   -25.9825 -24.3532 -13.7486 -12.3056 -10.0433  -8.4636  -7.7768  -6.3764
    -1.3267  -0.3698  -0.0311   0.0697

     the Fermi energy is    -2.1664 ev

!    total energy              =     -71.02138559 Ry
     estimated scf accuracy    <          2.3E-11 Ry
     smearing contrib. (-TS)   =      -0.00000000 Ry
     internal energy E=F+TS    =     -71.02138559 Ry

     The total energy is F=E-TS. E is the sum of the following terms:
     one-electron contribution =    -149.36987334 Ry
     hartree contribution      =      77.82079707 Ry
     xc contribution           =     -19.63300490 Ry
     ewald contribution        =      20.16069558 Ry

     convergence has been achieved in   5 iterations

     Forces acting on atoms (cartesian axes, Ry/au):

     atom    1 type  1   force =     0.00008493    0.00016840   -0.00020086
     atom    2 type  2   force =    -0.00006943    0.00006917    0.00013283
     atom    3 type  2   force =    -0.00007179   -0.00031839    0.00007497
     atom    4 type  1   force =    -0.00001674    0.00021560    0.00023498
     atom    5 type  2   force =     0.00004068   -0.00003289   -0.00020341
     atom    6 type  2   force =     0.00003234   -0.00010188   -0.00003851
     The non-local contrib.  to forces
     atom    1 type  1   force =     0.76284800   -1.63900440    1.08174861
     atom    2 type  2   force =    -0.20159238    0.02516483   -0.04222895
     atom    3 type  2   force =     0.10681849    0.16619116   -0.08473681
     atom    4 type  1   force =     1.29069462    1.56851742   -0.62620140
     atom    5 type  2   force =    -0.11158735   -0.00546838    0.18522632
     atom    6 type  2   force =    -0.05223978   -0.17462249   -0.11621433
     The ionic contribution  to forces
     atom    1 type  1   force =    -4.44714986    3.48070242   -2.75919313
     atom    2 type  2   force =     2.53565060   -0.42044360    0.55438112
     atom    3 type  2   force =    -2.24333568   -2.98408812    1.46725051
     atom    4 type  1   force =     0.56730432   -3.28631433    1.84966914
     atom    5 type  2   force =     2.32217877    0.06842353   -3.29327584
     atom    6 type  2   force =     1.26535185    3.14172012    2.18116820
     The local contribution  to forces
     atom    1 type  1   force =     3.70510143   -1.88855806    1.70826858
     atom    2 type  2   force =    -2.33410914    0.39536086   -0.51205601
     atom    3 type  2   force =     2.13646364    2.81759141   -1.38247602
     atom    4 type  1   force =    -1.82061421    1.76311399   -1.24112086
     atom    5 type  2   force =    -2.21053205   -0.06297533    3.10780880
     atom    6 type  2   force =    -1.21306103   -2.96718707   -2.06502917
     The core correction contribution to forces
     atom    1 type  1   force =    -0.02070052    0.04704675   -0.03106147
     atom    2 type  2   force =     0.00000000    0.00000000    0.00000000
     atom    3 type  2   force =     0.00000000    0.00000000    0.00000000
     atom    4 type  1   force =    -0.03738479   -0.04508418    0.01786038
     atom    5 type  2   force =     0.00000000    0.00000000    0.00000000
     atom    6 type  2   force =     0.00000000    0.00000000    0.00000000
     The Hubbard contrib.    to forces
     atom    1 type  1   force =     0.00000000    0.00000000    0.00000000
     atom    2 type  2   force =     0.00000000    0.00000000    0.00000000
     atom    3 type  2   force =     0.00000000    0.00000000    0.00000000
     atom    4 type  1   force =     0.00000000    0.00000000    0.00000000
     atom    5 type  2   force =     0.00000000    0.00000000    0.00000000
     atom    6 type  2   force =     0.00000000    0.00000000    0.00000000
     The SCF correction term to forces
     atom    1 type  1   force =     0.00000459   -0.00000586   -0.00000059
     atom    2 type  2   force =     0.00000019   -0.00000046   -0.00000045
     atom    3 type  2   force =     0.00000046   -0.00000039    0.00000016
     atom    4 type  1   force =     0.00000204   -0.00000484   -0.00000941
     atom    5 type  2   force =     0.00000002   -0.00000025    0.00000016
     atom    6 type  2   force =    -0.00000001    0.00000001   -0.00000035

     Total force =     0.000612     Total SCF correction =     0.000013
     Energy error            =      3.6E-07 Ry
     Gradient error          =      3.2E-04 Ry/Bohr

     number of scf cycles    =  50
     number of bfgs steps    =  49

     energy             old  =     -71.0213852334 Ry
     energy             new  =     -71.0213855919 Ry

     CASE: energy            _new < energy            _old

     new trust radius        =       0.0020604778 bohr

     The maximum number of steps has been reached.

     End of BFGS Geometry Optimization

ATOMIC_POSITIONS (angstrom)
O            -3.0043858791        1.3033263513       -0.0580403121
H            -2.0626003795        1.1591870629        0.1561731548
H            -3.4596149863        0.5473300597        0.3309557786
O            -0.1957286157        1.0911495651        0.5106610441
H             0.3130676423        1.1424049083       -0.3092175366
H             0.0562992184        1.8815513574        1.0065956991



     Writing config-only to output data dir ./out/water.save/
     NEW-OLD atomic charge density approx. for the potential

     Check: negative core charge=   -0.000005

     negative rho (up, down):  1.115E-06 0.000E+00

     Writing all to output data dir ./out/water.save/

     init_run     :      1.61s CPU      1.72s WALL (       1 calls)
     electrons    :    221.04s CPU    242.40s WALL (      50 calls)
     update_pot   :     39.46s CPU     41.45s WALL (      50 calls)
     forces       :     30.25s CPU     31.95s WALL (      50 calls)

     Called by init_run:
     wfcinit      :      0.11s CPU      0.13s WALL (       1 calls)
     potinit      :      0.45s CPU      0.49s WALL (       1 calls)
     hinit0       :      0.86s CPU      0.89s WALL (       1 calls)

     Called by electrons:
     c_bands      :    108.58s CPU    114.24s WALL (     353 calls)
     sum_band     :     34.34s CPU     36.66s WALL (     353 calls)
     v_of_rho     :     73.09s CPU     84.68s WALL (     382 calls)
     mix_rho      :     10.48s CPU     11.26s WALL (     353 calls)

     Called by c_bands:
     init_us_2    :      2.26s CPU      2.33s WALL (     707 calls)
     init_us_2:cp :      2.25s CPU      2.33s WALL (     707 calls)
     regterg      :    104.55s CPU    109.71s WALL (     353 calls)

     Called by *egterg:
     rdiaghg      :      0.41s CPU      0.42s WALL (    1094 calls)
     h_psi        :     97.63s CPU    102.66s WALL (    1166 calls)
     g_psi        :      0.30s CPU      0.31s WALL (     812 calls)

     Called by h_psi:
     h_psi:calbec :      2.69s CPU      2.75s WALL (    1166 calls)
     vloc_psi     :     92.29s CPU     97.21s WALL (    1166 calls)
     add_vuspsi   :      2.07s CPU      2.11s WALL (    1166 calls)

     General routines
     calbec       :      3.16s CPU      3.23s WALL (    1366 calls)
     fft          :     41.07s CPU     49.22s WALL (    3529 calls)
     ffts         :      4.00s CPU      4.49s WALL (     353 calls)
     fftw         :     80.63s CPU     86.00s WALL (   13014 calls)

     Parallel routines

     PWSCF        :   4m54.81s CPU   5m25.90s WALL


   This run was terminated on:  12:42:13  12May2025            

=------------------------------------------------------------------------------=
   JOB DONE.
=------------------------------------------------------------------------------=
