
     Program PWSCF v.6.8 starts on  7May2025 at 21:17:15 

     This program is part of the open-source Quantum ESPRESSO suite
     for quantum simulation of materials; please cite
         "P. Giannozzi et al., J. Phys.:Condens. Matter 21 395502 (2009);
         "P. Giannozzi et al., J. Phys.:Condens. Matter 29 465901 (2017);
         "P. Giannozzi et al., J. Chem. Phys. 152 154105 (2020);
          URL http://www.quantum-espresso.org", 
     in publications or presentations arising from this work. More details at
     http://www.quantum-espresso.org/quote

     Parallel version (MPI & OpenMP), running on      56 processor cores
     Number of MPI processes:                56
     Threads/MPI process:                     1

     MPI processes distributed on     1 nodes
     R & G space division:  proc/nbgrp/npool/nimage =      56
     186410 MiB available memory on the printing compute node when the environment starts
 
     Reading input from minus_e.in

     Current dimensions of program PWSCF are:
     Max number of different atomic species (ntypx) = 10
     Max number of k-points (npk) =  40000
     Max angular momentum in pseudopotentials (lmaxx) =  4
     Found symmetry operation: I + ( -0.5000 -0.5000  0.0000)
     This is a supercell, fractional translations are disabled

     Subspace diagonalization in iterative solution of the eigenvalue problem:
     one sub-group per band group will be used
     scalapack distributed-memory algorithm (size of sub-group:  7*  7 procs)

 
     Parallelization info
     --------------------
     sticks:   dense  smooth     PW     G-vecs:    dense   smooth      PW
     Min          53      53     15                 2223     2223     327
     Max          54      54     17                 2228     2228     329
     Sum        3005    3005    849               124601   124601   18337
 
     Using Slab Decomposition
 


     bravais-lattice index     =            0
     lattice parameter (alat)  =      10.8848  a.u.
     unit-cell volume          =    1289.6268 (a.u.)^3
     number of atoms/cell      =            8
     number of atomic types    =            1
     number of electrons       =       112.00
     number of Kohn-Sham states=           67
     kinetic-energy cutoff     =      80.0000  Ry
     charge density cutoff     =     320.0000  Ry
     scf convergence threshold =      1.0E-08
     mixing beta               =       0.4000
     number of iterations used =            8  plain     mixing
     Exchange-correlation= PBE
                           (   1   4   3   4   0   0   0)

     celldm(1)=  10.884822  celldm(2)=   0.000000  celldm(3)=   0.000000
     celldm(4)=   0.000000  celldm(5)=   0.000000  celldm(6)=   0.000000

     crystal axes: (cart. coord. in units of alat)
               a(1) = (   1.000000  -0.010000   0.000000 )  
               a(2) = (   0.000000   1.000000   0.000000 )  
               a(3) = (   0.000000   0.000000   1.000000 )  

     reciprocal axes: (cart. coord. in units 2 pi/alat)
               b(1) = (  1.000000  0.000000  0.000000 )  
               b(2) = (  0.010000  1.000000  0.000000 )  
               b(3) = (  0.000000  0.000000  1.000000 )  


     PseudoPot. # 1 for Ge read from file:
     ./Ge.upf
     MD5 check sum: 087fa14d6c89b52166990835c3b338da
     Pseudo is Norm-conserving + core correction, Zval = 14.0
     Generated using ONCVPSP code by D. R. Hamann
     Using radial grid of 1560 points,  6 beta functions with: 
                l(1) =   0
                l(2) =   0
                l(3) =   1
                l(4) =   1
                l(5) =   2
                l(6) =   2

     atomic species   valence    mass     pseudopotential
        Ge            14.00    72.63000     Ge( 1.00)

     No symmetry found



   Cartesian axes

     site n.     atom                  positions (alat units)
         1           Ge  tau(   1) = (   0.0000000   0.0000000   0.0000000  )
         2           Ge  tau(   2) = (   0.5000000   0.4950000   0.0000000  )
         3           Ge  tau(   3) = (   0.5000000  -0.0050000   0.5000000  )
         4           Ge  tau(   4) = (   0.0000000   0.5000000   0.5000000  )
         5           Ge  tau(   5) = (   0.2500000   0.2475000   0.2500000  )
         6           Ge  tau(   6) = (   0.7500000   0.7425000   0.2500000  )
         7           Ge  tau(   7) = (   0.7500000   0.2425000   0.7500000  )
         8           Ge  tau(   8) = (   0.2500000   0.7475000   0.7500000  )

     number of k points=    36  Gaussian smearing, width (Ry)=  0.0100
                       cart. coord. in units 2pi/alat
        k(    1) = (   0.0000000   0.0000000   0.0000000), wk =   0.0312500
        k(    2) = (   0.0000000   0.0000000   0.2500000), wk =   0.0625000
        k(    3) = (   0.0000000   0.0000000  -0.5000000), wk =   0.0312500
        k(    4) = (   0.0025000   0.2500000   0.0000000), wk =   0.0625000
        k(    5) = (   0.0025000   0.2500000   0.2500000), wk =   0.0625000
        k(    6) = (   0.0025000   0.2500000  -0.5000000), wk =   0.0625000
        k(    7) = (   0.0025000   0.2500000  -0.2500000), wk =   0.0625000
        k(    8) = (  -0.0050000  -0.5000000   0.0000000), wk =   0.0312500
        k(    9) = (  -0.0050000  -0.5000000   0.2500000), wk =   0.0625000
        k(   10) = (  -0.0050000  -0.5000000  -0.5000000), wk =   0.0312500
        k(   11) = (   0.2500000   0.0000000   0.0000000), wk =   0.0625000
        k(   12) = (   0.2500000   0.0000000   0.2500000), wk =   0.0625000
        k(   13) = (   0.2500000   0.0000000  -0.5000000), wk =   0.0625000
        k(   14) = (   0.2500000   0.0000000  -0.2500000), wk =   0.0625000
        k(   15) = (   0.2525000   0.2500000   0.0000000), wk =   0.0625000
        k(   16) = (   0.2525000   0.2500000   0.2500000), wk =   0.0625000
        k(   17) = (   0.2525000   0.2500000  -0.5000000), wk =   0.0625000
        k(   18) = (   0.2525000   0.2500000  -0.2500000), wk =   0.0625000
        k(   19) = (   0.2450000  -0.5000000   0.0000000), wk =   0.0625000
        k(   20) = (   0.2450000  -0.5000000   0.2500000), wk =   0.0625000
        k(   21) = (   0.2450000  -0.5000000  -0.5000000), wk =   0.0625000
        k(   22) = (   0.2450000  -0.5000000  -0.2500000), wk =   0.0625000
        k(   23) = (   0.2475000  -0.2500000   0.0000000), wk =   0.0625000
        k(   24) = (   0.2475000  -0.2500000   0.2500000), wk =   0.0625000
        k(   25) = (   0.2475000  -0.2500000  -0.5000000), wk =   0.0625000
        k(   26) = (   0.2475000  -0.2500000  -0.2500000), wk =   0.0625000
        k(   27) = (  -0.5000000   0.0000000   0.0000000), wk =   0.0312500
        k(   28) = (  -0.5000000   0.0000000   0.2500000), wk =   0.0625000
        k(   29) = (  -0.5000000   0.0000000  -0.5000000), wk =   0.0312500
        k(   30) = (  -0.4975000   0.2500000   0.0000000), wk =   0.0625000
        k(   31) = (  -0.4975000   0.2500000   0.2500000), wk =   0.0625000
        k(   32) = (  -0.4975000   0.2500000  -0.5000000), wk =   0.0625000
        k(   33) = (  -0.4975000   0.2500000  -0.2500000), wk =   0.0625000
        k(   34) = (  -0.5050000  -0.5000000   0.0000000), wk =   0.0312500
        k(   35) = (  -0.5050000  -0.5000000   0.2500000), wk =   0.0625000
        k(   36) = (  -0.5050000  -0.5000000  -0.5000000), wk =   0.0312500

     Dense  grid:   124601 G-vectors     FFT dimensions: (  64,  64,  64)

     Estimated max dynamical RAM per process >      15.35 MB

     Estimated total dynamical RAM >     859.65 MB

     Initial potential from superposition of free atoms

     starting charge  111.99342, renormalised to  112.00000
     Starting wfcs are   72 randomized atomic wfcs

     total cpu time spent up to now is        1.6 secs

     Self-consistent Calculation

     iteration #  1     ecut=    80.00 Ry     beta= 0.40
     Davidson diagonalization with overlap
     ethr =  1.00E-02,  avg # of iterations =  3.6

     Threshold (ethr) on eigenvalues was too large:
     Diagonalizing with lowered threshold

     Davidson diagonalization with overlap
     ethr =  1.01E-04,  avg # of iterations =  5.5

     total cpu time spent up to now is       11.0 secs

     total energy              =   -1429.14163713 Ry
     estimated scf accuracy    <       0.12475484 Ry

     iteration #  2     ecut=    80.00 Ry     beta= 0.40
     Davidson diagonalization with overlap
     ethr =  1.11E-04,  avg # of iterations =  1.0

     total cpu time spent up to now is       13.9 secs

     total energy              =   -1429.13692500 Ry
     estimated scf accuracy    <       0.03883819 Ry

     iteration #  3     ecut=    80.00 Ry     beta= 0.40
     Davidson diagonalization with overlap
     ethr =  3.47E-05,  avg # of iterations =  2.3

     total cpu time spent up to now is       17.3 secs

     total energy              =   -1429.13893744 Ry
     estimated scf accuracy    <       0.00044340 Ry

     iteration #  4     ecut=    80.00 Ry     beta= 0.40
     Davidson diagonalization with overlap
     c_bands:  1 eigenvalues not converged
     c_bands:  1 eigenvalues not converged
     c_bands:  1 eigenvalues not converged
     c_bands:  1 eigenvalues not converged
     c_bands:  1 eigenvalues not converged
     ethr =  3.96E-07,  avg # of iterations =  9.7

     total cpu time spent up to now is       23.8 secs

     total energy              =   -1429.13903961 Ry
     estimated scf accuracy    <       0.00003009 Ry

     iteration #  5     ecut=    80.00 Ry     beta= 0.40
     Davidson diagonalization with overlap
     ethr =  2.69E-08,  avg # of iterations =  3.1

     total cpu time spent up to now is       27.5 secs

     total energy              =   -1429.13903961 Ry
     estimated scf accuracy    <       0.00000328 Ry

     iteration #  6     ecut=    80.00 Ry     beta= 0.40
     Davidson diagonalization with overlap
     ethr =  2.92E-09,  avg # of iterations =  3.1

     total cpu time spent up to now is       32.0 secs

     total energy              =   -1429.13904046 Ry
     estimated scf accuracy    <       0.00000053 Ry

     iteration #  7     ecut=    80.00 Ry     beta= 0.40
     Davidson diagonalization with overlap
     ethr =  4.76E-10,  avg # of iterations =  2.0

     total cpu time spent up to now is       35.2 secs

     total energy              =   -1429.13904040 Ry
     estimated scf accuracy    <       0.00000016 Ry

     iteration #  8     ecut=    80.00 Ry     beta= 0.40
     Davidson diagonalization with overlap
     ethr =  1.40E-10,  avg # of iterations =  2.0

     total cpu time spent up to now is       39.3 secs

     total energy              =   -1429.13904045 Ry
     estimated scf accuracy    <       0.00000005 Ry

     iteration #  9     ecut=    80.00 Ry     beta= 0.40
     Davidson diagonalization with overlap
     ethr =  4.10E-11,  avg # of iterations =  2.0

     total cpu time spent up to now is       43.2 secs

     End of self-consistent calculation

          k = 0.0000 0.0000 0.0000 ( 15561 PWs)   bands (ev):

   -16.0097 -16.0062 -16.0062 -16.0062 -16.0062 -16.0027 -15.9812 -15.9763
   -15.9715 -15.9460 -15.9459 -15.9310 -15.9307 -15.9307 -15.9307 -15.9307
   -15.9306 -15.8502 -15.8479 -15.8479 -15.8479 -15.8479 -15.8455 -15.7989
   -15.7975 -15.7975 -15.7975 -15.7975 -15.7959 -15.7662 -15.7617 -15.7572
   -15.7543 -15.7542 -15.7184 -15.7154 -15.7154 -15.7154 -15.7154 -15.7124
    -3.5660   0.0658   0.1169   0.1169   0.1171   0.1171   0.1677   5.8741
     5.9192   5.9192   5.9196   5.9196   5.9650   8.3570   8.8037   8.8078
     8.8140   9.5706   9.6231   9.6231   9.6234   9.6234   9.6770  11.2652
    11.3403  11.4103  15.1149

          k = 0.0000 0.0000 0.2500 ( 15593 PWs)   bands (ev):

   -16.0127 -16.0127 -16.0127 -16.0127 -16.0060 -15.9987 -15.9859 -15.9827
   -15.9768 -15.9638 -15.9383 -15.9256 -15.9146 -15.9146 -15.9145 -15.9145
   -15.8867 -15.8849 -15.8492 -15.8492 -15.8492 -15.8492 -15.8408 -15.8115
   -15.8114 -15.8114 -15.8114 -15.8114 -15.7925 -15.7624 -15.7612 -15.7585
   -15.7501 -15.7401 -15.7248 -15.7185 -15.7098 -15.7098 -15.7098 -15.7098
    -3.3242  -1.4430   0.1573   0.1573   0.1574   0.1574   1.9876   5.4908
     5.4909   5.4911   5.4911   6.1272   6.2151   6.2782   7.9715   8.0233
     9.4515  10.4015  10.6930  10.7446  10.7446  10.7450  10.7450  10.7691
    12.4085  12.5021  16.1241

          k = 0.0000 0.0000-0.5000 ( 15610 PWs)   bands (ev):

   -16.0178 -16.0178 -16.0178 -16.0178 -15.9965 -15.9965 -15.9884 -15.9884
   -15.9813 -15.9813 -15.9167 -15.9167 -15.8947 -15.8947 -15.8947 -15.8947
   -15.8865 -15.8865 -15.8539 -15.8539 -15.8539 -15.8539 -15.8375 -15.8375
   -15.8260 -15.8260 -15.8260 -15.8260 -15.7812 -15.7812 -15.7420 -15.7420
   -15.7410 -15.7410 -15.7338 -15.7338 -15.7052 -15.7052 -15.7052 -15.7052
    -2.6073  -2.6073   0.1995   0.1995   0.1995   0.1995   4.0682   4.0682
     5.1550   5.1550   5.1550   5.1550   6.8629   6.8629   6.9404   6.9404
     9.8698   9.8698  11.4117  11.4117  12.9178  12.9178  12.9178  12.9179
    13.4882  13.4882  13.4882

          k = 0.0025 0.2500 0.0000 ( 15599 PWs)   bands (ev):

   -16.0157 -16.0142 -16.0112 -16.0096 -16.0025 -16.0023 -15.9861 -15.9814
   -15.9781 -15.9636 -15.9383 -15.9254 -15.9149 -15.9148 -15.9144 -15.9142
   -15.8865 -15.8849 -15.8516 -15.8502 -15.8482 -15.8468 -15.8410 -15.8127
   -15.8117 -15.8115 -15.8111 -15.8101 -15.7928 -15.7625 -15.7613 -15.7543
   -15.7543 -15.7396 -15.7217 -15.7216 -15.7126 -15.7113 -15.7084 -15.7071
    -3.3242  -1.4422   0.1061   0.1295   0.1851   0.2083   1.9876   5.4659
     5.4811   5.5007   5.5159   6.1706   6.1709   6.2793   7.9966   7.9971
     9.4531  10.3985  10.6726  10.7196  10.7321  10.7385  10.7585  10.8187
    12.4547  12.4587  16.0111

          k = 0.0025 0.2500 0.2500 ( 15596 PWs)   bands (ev):

   -16.0207 -16.0122 -16.0099 -16.0082 -16.0069 -16.0059 -15.9943 -15.9864
   -15.9702 -15.9451 -15.9450 -15.9297 -15.9290 -15.9200 -15.8859 -15.8858
   -15.8786 -15.8741 -15.8736 -15.8579 -15.8504 -15.8501 -15.8451 -15.8414
   -15.8130 -15.8130 -15.7983 -15.7916 -15.7825 -15.7816 -15.7816 -15.7567
   -15.7466 -15.7312 -15.7179 -15.7159 -15.7152 -15.7143 -15.7122 -15.7027
    -3.0888  -1.2847  -1.2839  -0.3449   0.6846   1.7902   1.7903   4.7497
     5.1383   5.5217   5.5218   6.1004   6.1005   6.3348   7.1863   8.4470
     9.9949  10.2942  10.6863  10.6927  11.2921  11.3008  11.8860  12.0012
    12.7833  13.4080  14.2335

          k = 0.0025 0.2500-0.5000 ( 15578 PWs)   bands (ev):

   -16.0195 -16.0195 -16.0103 -16.0103 -16.0035 -16.0035 -15.9971 -15.9971
   -15.9615 -15.9615 -15.9234 -15.9234 -15.9149 -15.9149 -15.8903 -15.8903
   -15.8819 -15.8819 -15.8594 -15.8594 -15.8550 -15.8550 -15.8289 -15.8289
   -15.8273 -15.8273 -15.8026 -15.8026 -15.7863 -15.7863 -15.7679 -15.7679
   -15.7306 -15.7306 -15.7227 -15.7227 -15.7129 -15.7129 -15.7046 -15.7046
    -2.3949  -2.3949  -0.8662  -0.8662   1.2778   1.2778   3.4723   3.4723
     4.7884   4.7884   6.1343   6.1343   6.2579   6.2579   7.2879   7.2879
    11.1360  11.1360  11.3796  11.3796  11.3924  11.3924  13.1960  13.1960
    13.4346  13.4346  13.6718

          k = 0.0025 0.2500-0.2500 ( 15596 PWs)   bands (ev):

   -16.0207 -16.0122 -16.0099 -16.0082 -16.0069 -16.0059 -15.9943 -15.9864
   -15.9702 -15.9451 -15.9450 -15.9297 -15.9290 -15.9200 -15.8859 -15.8858
   -15.8786 -15.8741 -15.8736 -15.8579 -15.8504 -15.8501 -15.8451 -15.8414
   -15.8130 -15.8130 -15.7983 -15.7916 -15.7825 -15.7816 -15.7816 -15.7567
   -15.7466 -15.7312 -15.7179 -15.7159 -15.7152 -15.7143 -15.7122 -15.7027
    -3.0888  -1.2847  -1.2839  -0.3449   0.6846   1.7902   1.7903   4.7497
     5.1383   5.5217   5.5218   6.1004   6.1005   6.3348   7.1863   8.4470
     9.9949  10.2942  10.6863  10.6927  11.2921  11.3008  11.8860  12.0012
    12.7833  13.4080  14.2347

          k =-0.0050-0.5000 0.0000 ( 15600 PWs)   bands (ev):

   -16.0202 -16.0202 -16.0155 -16.0155 -15.9933 -15.9933 -15.9924 -15.9924
   -15.9806 -15.9806 -15.9167 -15.9167 -15.8955 -15.8955 -15.8939 -15.8939
   -15.8861 -15.8861 -15.8565 -15.8565 -15.8513 -15.8513 -15.8378 -15.8378
   -15.8268 -15.8268 -15.8253 -15.8253 -15.7813 -15.7813 -15.7428 -15.7428
   -15.7375 -15.7375 -15.7365 -15.7365 -15.7075 -15.7075 -15.7030 -15.7030
    -2.6071  -2.6071   0.1533   0.1533   0.2457   0.2457   4.0691   4.0691
     5.1543   5.1543   5.1553   5.1553   6.9010   6.9010   6.9012   6.9012
     9.8699   9.8699  11.4098  11.4098  12.8452  12.8452  12.9876  12.9876
    13.4484  13.4484  13.5353

          k =-0.0050-0.5000 0.2500 ( 15588 PWs)   bands (ev):

   -16.0199 -16.0199 -16.0098 -16.0098 -16.0023 -16.0023 -15.9983 -15.9983
   -15.9615 -15.9615 -15.9234 -15.9234 -15.9149 -15.9149 -15.8901 -15.8901
   -15.8818 -15.8818 -15.8604 -15.8604 -15.8541 -15.8541 -15.8291 -15.8291
   -15.8273 -15.8273 -15.8026 -15.8026 -15.7863 -15.7863 -15.7678 -15.7678
   -15.7300 -15.7300 -15.7233 -15.7233 -15.7134 -15.7134 -15.7041 -15.7041
    -2.3947  -2.3947  -0.8669  -0.8669   1.2783   1.2783   3.4728   3.4728
     4.7886   4.7886   6.1334   6.1334   6.2573   6.2573   7.2888   7.2888
    11.1446  11.1446  11.3800  11.3800  11.3802  11.3802  13.1823  13.1823
    13.4337  13.4338  13.6899

          k =-0.0050-0.5000-0.5000 ( 15604 PWs)   bands (ev):

   -16.0125 -16.0125 -16.0125 -16.0125 -16.0046 -16.0046 -16.0046 -16.0046
   -15.9379 -15.9379 -15.9379 -15.9379 -15.9076 -15.9076 -15.9076 -15.9076
   -15.8845 -15.8845 -15.8845 -15.8845 -15.8221 -15.8221 -15.8221 -15.8221
   -15.8032 -15.8032 -15.8032 -15.8032 -15.7950 -15.7950 -15.7950 -15.7950
   -15.7191 -15.7191 -15.7191 -15.7191 -15.7136 -15.7136 -15.7136 -15.7136
    -1.7844  -1.7844  -1.7844  -1.7844   2.3776   2.3776   2.3776   2.3776
     5.1829   5.1829   5.1829   5.1829   7.3952   7.3952   7.3952   7.3952
    10.6578  10.6578  10.6578  10.6578  13.4711  13.4711  13.4712  13.4717
    13.7320  13.7320  13.7325

          k = 0.2500 0.0000 0.0000 ( 15597 PWs)   bands (ev):

   -16.0157 -16.0142 -16.0112 -16.0096 -16.0025 -16.0023 -15.9861 -15.9814
   -15.9781 -15.9636 -15.9383 -15.9254 -15.9149 -15.9148 -15.9144 -15.9142
   -15.8865 -15.8849 -15.8516 -15.8502 -15.8482 -15.8468 -15.8410 -15.8127
   -15.8117 -15.8116 -15.8112 -15.8101 -15.7928 -15.7625 -15.7613 -15.7543
   -15.7543 -15.7396 -15.7217 -15.7216 -15.7126 -15.7113 -15.7084 -15.7071
    -3.3242  -1.4423   0.1061   0.1297   0.1852   0.2083   1.9874   5.4660
     5.4809   5.5006   5.5159   6.1709   6.1712   6.2791   7.9967   7.9974
     9.4536  10.3987  10.6725  10.7199  10.7315  10.7384  10.7579  10.8186
    12.4544  12.4589  16.0108

          k = 0.2500 0.0000 0.2500 ( 15596 PWs)   bands (ev):

   -16.0207 -16.0122 -16.0099 -16.0082 -16.0069 -16.0059 -15.9943 -15.9864
   -15.9702 -15.9451 -15.9450 -15.9297 -15.9289 -15.9200 -15.8859 -15.8858
   -15.8786 -15.8741 -15.8736 -15.8579 -15.8504 -15.8501 -15.8451 -15.8414
   -15.8130 -15.8130 -15.7983 -15.7916 -15.7825 -15.7816 -15.7816 -15.7567
   -15.7465 -15.7312 -15.7179 -15.7158 -15.7152 -15.7143 -15.7122 -15.7027
    -3.0888  -1.2847  -1.2841  -0.3448   0.6848   1.7900   1.7904   4.7497
     5.1383   5.5219   5.5221   6.1004   6.1005   6.3344   7.1866   8.4467
     9.9945  10.2941  10.6862  10.6932  11.2923  11.3006  11.8861  12.0016
    12.7827  13.4077  14.2329

          k = 0.2500 0.0000-0.5000 ( 15576 PWs)   bands (ev):

   -16.0195 -16.0195 -16.0103 -16.0103 -16.0035 -16.0035 -15.9971 -15.9971
   -15.9615 -15.9615 -15.9234 -15.9234 -15.9149 -15.9149 -15.8903 -15.8903
   -15.8819 -15.8819 -15.8594 -15.8594 -15.8550 -15.8550 -15.8289 -15.8289
   -15.8273 -15.8273 -15.8027 -15.8027 -15.7863 -15.7863 -15.7679 -15.7679
   -15.7306 -15.7306 -15.7227 -15.7227 -15.7129 -15.7129 -15.7046 -15.7046
    -2.3949  -2.3949  -0.8663  -0.8663   1.2779   1.2779   3.4724   3.4724
     4.7886   4.7886   6.1344   6.1345   6.2576   6.2576   7.2877   7.2877
    11.1359  11.1359  11.3793  11.3793  11.3922  11.3922  13.1965  13.1965
    13.4343  13.4345  13.6722

          k = 0.2500 0.0000-0.2500 ( 15596 PWs)   bands (ev):

   -16.0207 -16.0122 -16.0099 -16.0082 -16.0069 -16.0059 -15.9943 -15.9864
   -15.9702 -15.9451 -15.9450 -15.9297 -15.9289 -15.9200 -15.8859 -15.8858
   -15.8786 -15.8741 -15.8736 -15.8579 -15.8504 -15.8501 -15.8451 -15.8414
   -15.8130 -15.8130 -15.7983 -15.7916 -15.7825 -15.7816 -15.7816 -15.7567
   -15.7465 -15.7312 -15.7179 -15.7158 -15.7152 -15.7143 -15.7122 -15.7027
    -3.0888  -1.2847  -1.2841  -0.3448   0.6848   1.7900   1.7904   4.7497
     5.1383   5.5219   5.5221   6.1004   6.1005   6.3344   7.1866   8.4467
     9.9945  10.2941  10.6862  10.6932  11.2923  11.3006  11.8861  12.0016
    12.7827  13.4077  14.2328

          k = 0.2525 0.2500 0.0000 ( 15578 PWs)   bands (ev):

   -16.0230 -16.0109 -16.0109 -16.0085 -16.0085 -16.0037 -15.9899 -15.9871
   -15.9750 -15.9435 -15.9435 -15.9295 -15.9291 -15.9181 -15.8868 -15.8868
   -15.8779 -15.8732 -15.8732 -15.8555 -15.8513 -15.8513 -15.8441 -15.8441
   -15.8120 -15.8120 -15.7997 -15.7945 -15.7823 -15.7823 -15.7814 -15.7542
   -15.7464 -15.7334 -15.7178 -15.7158 -15.7158 -15.7134 -15.7134 -15.7004
    -3.0813  -1.3062  -1.3061  -0.2918   0.6386   1.8173   1.8175   4.7555
     5.1371   5.5214   5.5215   6.0879   6.0881   6.2965   7.2092   8.4425
     9.9471  10.2238  10.7040  10.7046  11.3314  11.3318  11.8160  11.9889
    12.8917  13.4688  14.3091

          k = 0.2525 0.2500 0.2500 ( 15579 PWs)   bands (ev):

   -16.0184 -16.0170 -16.0170 -16.0031 -16.0031 -15.9997 -15.9937 -15.9887
   -15.9713 -15.9439 -15.9423 -15.9423 -15.9204 -15.9203 -15.8878 -15.8877
   -15.8865 -15.8683 -15.8683 -15.8664 -15.8544 -15.8537 -15.8537 -15.8135
   -15.8121 -15.8121 -15.7884 -15.7872 -15.7852 -15.7851 -15.7851 -15.7680
   -15.7364 -15.7327 -15.7235 -15.7209 -15.7209 -15.7075 -15.7075 -15.7060
    -2.8549  -1.2285  -1.2284  -1.1872   1.5608   1.5918   1.5919   4.1577
     5.2955   5.2956   5.2980   6.5171   6.5612   6.5615   7.9648   7.9651
     9.2769  10.1794  10.2307  10.2311  12.3191  12.4059  12.8916  12.8921
    12.9427  14.1128  14.1543

          k = 0.2525 0.2500-0.5000 ( 15582 PWs)   bands (ev):

   -16.0177 -16.0177 -16.0066 -16.0066 -16.0051 -16.0051 -15.9915 -15.9915
   -15.9617 -15.9617 -15.9337 -15.9337 -15.9129 -15.9129 -15.8965 -15.8965
   -15.8921 -15.8921 -15.8814 -15.8814 -15.8320 -15.8320 -15.8188 -15.8188
   -15.8145 -15.8145 -15.7957 -15.7957 -15.7892 -15.7892 -15.7712 -15.7712
   -15.7350 -15.7350 -15.7190 -15.7190 -15.7188 -15.7188 -15.7069 -15.7069
    -2.1961  -2.1961  -1.1413  -1.1412   1.3662   1.3662   2.8022   2.8022
     5.2784   5.2784   6.6687   6.6687   6.6871   6.6871   7.1352   7.1352
    10.2627  10.2627  11.0403  11.0403  12.0849  12.0849  12.2233  12.2233
    13.4124  13.4124  14.4576

          k = 0.2525 0.2500-0.2500 ( 15579 PWs)   bands (ev):

   -16.0184 -16.0170 -16.0170 -16.0031 -16.0031 -15.9997 -15.9937 -15.9887
   -15.9713 -15.9439 -15.9423 -15.9423 -15.9204 -15.9203 -15.8878 -15.8877
   -15.8865 -15.8683 -15.8683 -15.8664 -15.8544 -15.8537 -15.8537 -15.8135
   -15.8121 -15.8121 -15.7884 -15.7872 -15.7852 -15.7851 -15.7851 -15.7680
   -15.7364 -15.7327 -15.7235 -15.7209 -15.7209 -15.7075 -15.7075 -15.7060
    -2.8549  -1.2285  -1.2284  -1.1872   1.5608   1.5918   1.5919   4.1577
     5.2955   5.2956   5.2980   6.5171   6.5612   6.5615   7.9648   7.9651
     9.2769  10.1794  10.2307  10.2311  12.3191  12.4059  12.8916  12.8920
    12.9427  14.1127  14.1543

          k = 0.2450-0.5000 0.0000 ( 15598 PWs)   bands (ev):

   -16.0210 -16.0176 -16.0133 -16.0075 -16.0041 -15.9995 -15.9988 -15.9984
   -15.9648 -15.9584 -15.9249 -15.9220 -15.9161 -15.9137 -15.8914 -15.8886
   -15.8837 -15.8797 -15.8606 -15.8577 -15.8554 -15.8554 -15.8302 -15.8289
   -15.8281 -15.8258 -15.8034 -15.8017 -15.7877 -15.7848 -15.7700 -15.7654
   -15.7301 -15.7291 -15.7259 -15.7217 -15.7152 -15.7103 -15.7065 -15.7029
    -2.4096  -2.3797  -0.9077  -0.8243   1.2379   1.3167   3.4557   3.4895
     4.7878   4.7893   6.1200   6.1480   6.2457   6.2693   7.2875   7.2892
    11.1166  11.1810  11.3034  11.3142  11.4481  11.4530  13.1862  13.2079
    13.4404  13.6337  13.7115

          k = 0.2450-0.5000 0.2500 ( 15575 PWs)   bands (ev):

   -16.0173 -16.0155 -16.0078 -16.0063 -16.0036 -16.0026 -15.9951 -15.9951
   -15.9627 -15.9583 -15.9354 -15.9328 -15.9142 -15.9119 -15.8986 -15.8968
   -15.8939 -15.8906 -15.8811 -15.8799 -15.8328 -15.8320 -15.8190 -15.8175
   -15.8163 -15.8128 -15.7957 -15.7957 -15.7901 -15.7874 -15.7732 -15.7701
   -15.7324 -15.7316 -15.7227 -15.7197 -15.7196 -15.7164 -15.7092 -15.7071
    -2.2222  -2.1901  -1.1494  -1.0843   1.3180   1.3677   2.7851   2.8026
     5.2750   5.3000   6.6354   6.6527   6.7107   6.7148   7.1497   7.1801
    10.2612  10.3251  10.9846  11.0952  11.9881  12.0832  12.1921  12.2340
    13.4435  13.4481  14.2963

          k = 0.2450-0.5000-0.5000 ( 15552 PWs)   bands (ev):

   -16.0080 -16.0079 -16.0060 -16.0060 -16.0011 -16.0011 -16.0008 -16.0008
   -15.9491 -15.9491 -15.9471 -15.9471 -15.9093 -15.9093 -15.9085 -15.9085
   -15.8994 -15.8994 -15.8968 -15.8968 -15.8091 -15.8091 -15.8063 -15.8063
   -15.7961 -15.7961 -15.7948 -15.7948 -15.7925 -15.7925 -15.7905 -15.7905
   -15.7237 -15.7237 -15.7236 -15.7236 -15.7195 -15.7195 -15.7183 -15.7183
    -1.7214  -1.7214  -1.6796  -1.6796   1.8440   1.8440   1.8626   1.8626
     6.1333   6.1333   6.1679   6.1679   7.4227   7.4227   7.4561   7.4562
    10.0356  10.0356  10.0945  10.0945  12.5244  12.5244  12.5754  12.5754
    12.9192  12.9195  12.9196

          k = 0.2450-0.5000-0.2500 ( 15575 PWs)   bands (ev):

   -16.0173 -16.0155 -16.0078 -16.0063 -16.0036 -16.0026 -15.9951 -15.9951
   -15.9627 -15.9583 -15.9354 -15.9328 -15.9142 -15.9119 -15.8986 -15.8968
   -15.8939 -15.8906 -15.8811 -15.8799 -15.8328 -15.8320 -15.8190 -15.8175
   -15.8163 -15.8128 -15.7957 -15.7957 -15.7901 -15.7874 -15.7732 -15.7701
   -15.7324 -15.7316 -15.7227 -15.7197 -15.7196 -15.7164 -15.7092 -15.7071
    -2.2222  -2.1901  -1.1494  -1.0843   1.3180   1.3677   2.7851   2.8026
     5.2750   5.3000   6.6354   6.6527   6.7107   6.7148   7.1497   7.1801
    10.2612  10.3251  10.9846  11.0952  11.9881  12.0832  12.1921  12.2340
    13.4435  13.4482  14.4064

          k = 0.2475-0.2500 0.0000 ( 15608 PWs)   bands (ev):

   -16.0182 -16.0103 -16.0102 -16.0102 -16.0065 -16.0065 -15.9964 -15.9870
   -15.9664 -15.9466 -15.9466 -15.9305 -15.9286 -15.9215 -15.8847 -15.8847
   -15.8791 -15.8742 -15.8742 -15.8601 -15.8495 -15.8495 -15.8461 -15.8391
   -15.8141 -15.8141 -15.7967 -15.7889 -15.7837 -15.7808 -15.7808 -15.7585
   -15.7467 -15.7296 -15.7171 -15.7171 -15.7139 -15.7139 -15.7123 -15.7052
    -3.0962  -1.2618  -1.2617  -0.3966   0.7288   1.7625   1.7627   4.7437
     5.1400   5.5232   5.5234   6.1116   6.1117   6.3729   7.1630   8.4524
    10.0437  10.3717  10.6826  10.6832  11.2521  11.2525  11.9487  12.0114
    12.6758  13.3474  14.1614

          k = 0.2475-0.2500 0.2500 ( 15573 PWs)   bands (ev):

   -16.0151 -16.0151 -16.0134 -16.0066 -16.0030 -16.0029 -15.9958 -15.9909
   -15.9657 -15.9442 -15.9442 -15.9427 -15.9223 -15.9222 -15.8871 -15.8859
   -15.8859 -15.8719 -15.8702 -15.8702 -15.8513 -15.8513 -15.8508 -15.8141
   -15.8141 -15.8126 -15.7856 -15.7847 -15.7841 -15.7841 -15.7839 -15.7730
   -15.7354 -15.7317 -15.7206 -15.7206 -15.7177 -15.7109 -15.7091 -15.7091
    -2.8708  -1.2247  -1.1821  -1.1820   1.5421   1.5422   1.5740   4.1397
     5.3060   5.3088   5.3089   6.5449   6.5452   6.5899   7.9976   7.9994
     9.3328  10.2123  10.2126  10.2653  12.3335  12.4216  12.7560  12.8065
    12.8069  14.0867  14.1318

          k = 0.2475-0.2500-0.5000 ( 15572 PWs)   bands (ev):

   -16.0146 -16.0146 -16.0069 -16.0069 -16.0019 -16.0019 -15.9990 -15.9990
   -15.9593 -15.9593 -15.9344 -15.9344 -15.9132 -15.9132 -15.8991 -15.8991
   -15.8924 -15.8924 -15.8796 -15.8796 -15.8327 -15.8327 -15.8174 -15.8174
   -15.8146 -15.8146 -15.7958 -15.7958 -15.7883 -15.7883 -15.7722 -15.7722
   -15.7287 -15.7287 -15.7236 -15.7236 -15.7168 -15.7168 -15.7100 -15.7100
    -2.2166  -2.2166  -1.0921  -1.0921   1.3196   1.3196   2.7857   2.7857
     5.2970   5.2970   6.6194   6.6194   6.7370   6.7370   7.1956   7.1956
    10.3255  10.3255  11.0366  11.0367  11.9841  11.9841  12.2009  12.2009
    13.4810  13.4810  14.2744

          k = 0.2475-0.2500-0.2500 ( 15573 PWs)   bands (ev):

   -16.0151 -16.0151 -16.0134 -16.0066 -16.0030 -16.0029 -15.9958 -15.9909
   -15.9657 -15.9442 -15.9442 -15.9427 -15.9223 -15.9222 -15.8871 -15.8859
   -15.8859 -15.8719 -15.8702 -15.8702 -15.8513 -15.8513 -15.8508 -15.8141
   -15.8141 -15.8126 -15.7856 -15.7847 -15.7841 -15.7841 -15.7839 -15.7730
   -15.7354 -15.7317 -15.7206 -15.7206 -15.7177 -15.7109 -15.7091 -15.7091
    -2.8708  -1.2247  -1.1821  -1.1820   1.5421   1.5422   1.5740   4.1397
     5.3060   5.3088   5.3089   6.5449   6.5452   6.5899   7.9976   7.9994
     9.3328  10.2123  10.2126  10.2653  12.3335  12.4216  12.7560  12.8065
    12.8069  14.0866  14.1317

          k =-0.5000 0.0000 0.0000 ( 15598 PWs)   bands (ev):

   -16.0202 -16.0202 -16.0155 -16.0155 -15.9933 -15.9933 -15.9924 -15.9924
   -15.9806 -15.9806 -15.9167 -15.9167 -15.8955 -15.8955 -15.8938 -15.8938
   -15.8861 -15.8861 -15.8565 -15.8565 -15.8513 -15.8513 -15.8378 -15.8378
   -15.8268 -15.8268 -15.8253 -15.8253 -15.7813 -15.7813 -15.7428 -15.7428
   -15.7375 -15.7375 -15.7364 -15.7364 -15.7075 -15.7075 -15.7030 -15.7030
    -2.6071  -2.6071   0.1534   0.1534   0.2457   0.2457   4.0688   4.0688
     5.1543   5.1543   5.1553   5.1553   6.9013   6.9013   6.9014   6.9014
     9.8703   9.8703  11.4098  11.4098  12.8446  12.8446  12.9870  12.9870
    13.4479  13.4479  13.5349

          k =-0.5000 0.0000 0.2500 ( 15586 PWs)   bands (ev):

   -16.0199 -16.0199 -16.0098 -16.0098 -16.0023 -16.0023 -15.9983 -15.9983
   -15.9615 -15.9615 -15.9234 -15.9234 -15.9149 -15.9149 -15.8901 -15.8901
   -15.8818 -15.8818 -15.8604 -15.8604 -15.8541 -15.8541 -15.8291 -15.8291
   -15.8273 -15.8273 -15.8027 -15.8027 -15.7863 -15.7863 -15.7678 -15.7678
   -15.7300 -15.7300 -15.7233 -15.7233 -15.7134 -15.7134 -15.7041 -15.7041
    -2.3948  -2.3948  -0.8669  -0.8669   1.2784   1.2784   3.4728   3.4728
     4.7887   4.7887   6.1337   6.1337   6.2571   6.2571   7.2887   7.2887
    11.1451  11.1451  11.3793  11.3793  11.3802  11.3802  13.1820  13.1820
    13.4334  13.4336  13.6897

          k =-0.5000 0.0000-0.5000 ( 15600 PWs)   bands (ev):

   -16.0125 -16.0125 -16.0125 -16.0125 -16.0046 -16.0046 -16.0046 -16.0046
   -15.9379 -15.9379 -15.9379 -15.9379 -15.9076 -15.9076 -15.9076 -15.9076
   -15.8845 -15.8845 -15.8845 -15.8845 -15.8221 -15.8221 -15.8220 -15.8220
   -15.8032 -15.8032 -15.8032 -15.8032 -15.7950 -15.7950 -15.7950 -15.7950
   -15.7191 -15.7191 -15.7191 -15.7191 -15.7136 -15.7136 -15.7136 -15.7136
    -1.7844  -1.7844  -1.7844  -1.7844   2.3777   2.3777   2.3778   2.3778
     5.1832   5.1832   5.1832   5.1832   7.3948   7.3948   7.3948   7.3948
    10.6575  10.6575  10.6575  10.6575  13.4711  13.4712  13.4712  13.4717
    13.7323  13.7325  13.7328

          k =-0.4975 0.2500 0.0000 ( 15598 PWs)   bands (ev):

   -16.0210 -16.0176 -16.0133 -16.0075 -16.0041 -15.9995 -15.9988 -15.9984
   -15.9648 -15.9584 -15.9249 -15.9220 -15.9161 -15.9137 -15.8914 -15.8886
   -15.8837 -15.8797 -15.8607 -15.8577 -15.8554 -15.8553 -15.8302 -15.8289
   -15.8281 -15.8258 -15.8034 -15.8017 -15.7878 -15.7848 -15.7700 -15.7654
   -15.7301 -15.7291 -15.7259 -15.7216 -15.7152 -15.7103 -15.7065 -15.7029
    -2.4096  -2.3798  -0.9076  -0.8242   1.2380   1.3168   3.4556   3.4894
     4.7878   4.7892   6.1201   6.1481   6.2458   6.2694   7.2875   7.2892
    11.1171  11.1816  11.3036  11.3139  11.4477  11.4533  13.1853  13.2070
    13.4266  13.4418  13.6334

          k =-0.4975 0.2500 0.2500 ( 15575 PWs)   bands (ev):

   -16.0173 -16.0155 -16.0078 -16.0063 -16.0036 -16.0026 -15.9951 -15.9951
   -15.9627 -15.9583 -15.9354 -15.9328 -15.9142 -15.9119 -15.8986 -15.8967
   -15.8939 -15.8906 -15.8811 -15.8799 -15.8328 -15.8320 -15.8190 -15.8175
   -15.8163 -15.8128 -15.7957 -15.7957 -15.7901 -15.7874 -15.7732 -15.7701
   -15.7324 -15.7316 -15.7227 -15.7197 -15.7196 -15.7164 -15.7092 -15.7071
    -2.2223  -2.1901  -1.1494  -1.0843   1.3181   1.3678   2.7851   2.8026
     5.2751   5.3002   6.6353   6.6526   6.7106   6.7147   7.1500   7.1803
    10.2613  10.3252  10.9842  11.0947  11.9881  12.0831  12.1918  12.2337
    13.4437  13.4483  14.2967

          k =-0.4975 0.2500-0.5000 ( 15552 PWs)   bands (ev):

   -16.0080 -16.0079 -16.0060 -16.0060 -16.0011 -16.0011 -16.0007 -16.0007
   -15.9491 -15.9491 -15.9471 -15.9471 -15.9093 -15.9093 -15.9085 -15.9085
   -15.8994 -15.8994 -15.8968 -15.8968 -15.8091 -15.8091 -15.8063 -15.8063
   -15.7961 -15.7961 -15.7948 -15.7948 -15.7925 -15.7925 -15.7905 -15.7905
   -15.7237 -15.7237 -15.7236 -15.7236 -15.7195 -15.7195 -15.7183 -15.7183
    -1.7214  -1.7214  -1.6797  -1.6797   1.8440   1.8440   1.8627   1.8627
     6.1335   6.1335   6.1682   6.1682   7.4224   7.4224   7.4558   7.4558
    10.0354  10.0354  10.0944  10.0944  12.5246  12.5246  12.5756  12.5756
    12.9191  12.9191  12.9195

          k =-0.4975 0.2500-0.2500 ( 15575 PWs)   bands (ev):

   -16.0173 -16.0155 -16.0078 -16.0063 -16.0036 -16.0026 -15.9951 -15.9951
   -15.9627 -15.9583 -15.9354 -15.9328 -15.9142 -15.9119 -15.8986 -15.8967
   -15.8939 -15.8906 -15.8811 -15.8799 -15.8328 -15.8320 -15.8190 -15.8175
   -15.8163 -15.8128 -15.7957 -15.7957 -15.7901 -15.7874 -15.7732 -15.7701
   -15.7324 -15.7316 -15.7227 -15.7197 -15.7196 -15.7164 -15.7092 -15.7071
    -2.2223  -2.1901  -1.1494  -1.0843   1.3181   1.3678   2.7851   2.8026
     5.2751   5.3002   6.6353   6.6526   6.7106   6.7146   7.1500   7.1803
    10.2613  10.3252  10.9842  11.0947  11.9881  12.0831  12.1918  12.2337
    13.4437  13.4483  14.4061

          k =-0.5050-0.5000 0.0000 ( 15588 PWs)   bands (ev):

   -16.0127 -16.0127 -16.0108 -16.0108 -16.0084 -16.0083 -16.0023 -16.0023
   -15.9410 -15.9410 -15.9350 -15.9350 -15.9093 -15.9093 -15.9058 -15.9058
   -15.8866 -15.8866 -15.8821 -15.8821 -15.8249 -15.8249 -15.8195 -15.8194
   -15.8065 -15.8065 -15.8000 -15.8000 -15.7973 -15.7972 -15.7928 -15.7928
   -15.7204 -15.7204 -15.7159 -15.7159 -15.7158 -15.7158 -15.7134 -15.7134
    -1.8136  -1.8136  -1.7546  -1.7546   2.3494   2.3494   2.4050   2.4050
     5.1761   5.1761   5.1900   5.1900   7.3759   7.3759   7.4147   7.4147
    10.6097  10.6097  10.7090  10.7090  13.4283  13.4283  13.5244  13.5245
    13.7163  13.7537  13.7569

          k =-0.5050-0.5000 0.2500 ( 15560 PWs)   bands (ev):

   -16.0071 -16.0071 -16.0051 -16.0051 -16.0050 -16.0050 -15.9986 -15.9986
   -15.9509 -15.9509 -15.9455 -15.9455 -15.9108 -15.9108 -15.9069 -15.9069
   -15.8991 -15.8991 -15.8972 -15.8972 -15.8091 -15.8091 -15.8062 -15.8062
   -15.7974 -15.7974 -15.7954 -15.7954 -15.7919 -15.7919 -15.7892 -15.7892
   -15.7248 -15.7248 -15.7215 -15.7215 -15.7199 -15.7199 -15.7189 -15.7189
    -1.7310  -1.7310  -1.6696  -1.6696   1.8325   1.8325   1.8736   1.8736
     6.1426   6.1426   6.1585   6.1585   7.4209   7.4209   7.4583   7.4583
    10.0135  10.0135  10.1186  10.1186  12.5448  12.5449  12.5542  12.5548
    12.8669  12.8670  12.9713

          k =-0.5050-0.5000-0.5000 ( 15440 PWs)   bands (ev):

   -16.0014 -16.0014 -15.9990 -15.9990 -15.9966 -15.9966 -15.9943 -15.9943
   -15.9629 -15.9629 -15.9584 -15.9584 -15.9117 -15.9117 -15.9098 -15.9098
   -15.9094 -15.9094 -15.9075 -15.9075 -15.7972 -15.7972 -15.7957 -15.7957
   -15.7945 -15.7945 -15.7930 -15.7930 -15.7813 -15.7813 -15.7776 -15.7776
   -15.7304 -15.7303 -15.7291 -15.7291 -15.7260 -15.7260 -15.7247 -15.7247
    -1.6382  -1.6382  -1.5736  -1.5736   1.4279   1.4279   1.4643   1.4643
     7.4588   7.4588   7.4682   7.4682   7.5040   7.5040   7.5122   7.5122
     8.7961   8.7961   8.8690   8.8690  12.4660  12.4660  12.4953  12.4953
    12.5453  12.5453  12.5750

     the Fermi energy is     8.7651 ev

!    total energy              =   -1429.13904045 Ry
     estimated scf accuracy    <          1.3E-09 Ry
     smearing contrib. (-TS)   =      -0.00050901 Ry
     internal energy E=F+TS    =   -1429.13853145 Ry

     The total energy is F=E-TS. E is the sum of the following terms:
     one-electron contribution =    -755.56762214 Ry
     hartree contribution      =     451.46659336 Ry
     xc contribution           =    -349.06334631 Ry
     ewald contribution        =    -775.97415635 Ry

     convergence has been achieved in   9 iterations

     Forces acting on atoms (cartesian axes, Ry/au):

     atom    1 type  1   force =    -0.00000033    0.00000046   -0.00313933
     atom    2 type  1   force =     0.00000019   -0.00000062   -0.00313951
     atom    3 type  1   force =     0.00000035    0.00000035   -0.00314027
     atom    4 type  1   force =     0.00000024   -0.00000036   -0.00314053
     atom    5 type  1   force =    -0.00000004    0.00000027    0.00313937
     atom    6 type  1   force =    -0.00000014   -0.00000024    0.00313915
     atom    7 type  1   force =    -0.00000010    0.00000005    0.00314049
     atom    8 type  1   force =    -0.00000016    0.00000009    0.00314063

     Total force =     0.008881     Total SCF correction =     0.000060


     Computing stress (Cartesian axis) and pressure

          total   stress  (Ry/bohr**3)                   (kbar)     P=        2.50
   0.00001748   0.00004614  -0.00000000            2.57        6.79       -0.00
   0.00004614   0.00001677  -0.00000000            6.79        2.47       -0.00
  -0.00000000  -0.00000000   0.00001682           -0.00       -0.00        2.47


     Writing output data file ./Ge_out/Ge_scf.save/
 
     init_run     :      1.06s CPU      1.47s WALL (       1 calls)
     electrons    :     32.21s CPU     41.67s WALL (       1 calls)
     forces       :      0.32s CPU      0.52s WALL (       1 calls)
     stress       :      1.07s CPU      1.64s WALL (       1 calls)

     Called by init_run:
     wfcinit      :      1.01s CPU      1.36s WALL (       1 calls)
     potinit      :      0.01s CPU      0.02s WALL (       1 calls)
     hinit0       :      0.01s CPU      0.05s WALL (       1 calls)

     Called by electrons:
     c_bands      :     28.58s CPU     37.69s WALL (      10 calls)
     sum_band     :      3.58s CPU      3.87s WALL (      10 calls)
     v_of_rho     :      0.05s CPU      0.06s WALL (      10 calls)
     mix_rho      :      0.01s CPU      0.02s WALL (      10 calls)

     Called by c_bands:
     init_us_2    :      0.24s CPU      0.27s WALL (     828 calls)
     cegterg      :     27.48s CPU     36.55s WALL (     360 calls)

     Called by *egterg:
     cdiaghg      :      5.50s CPU     11.62s WALL (    1558 calls)
     h_psi        :     18.81s CPU     20.97s WALL (    1630 calls)
     g_psi        :      0.05s CPU      0.06s WALL (    1234 calls)

     Called by h_psi:
     h_psi:calbec :      0.95s CPU      1.16s WALL (    1630 calls)
     vloc_psi     :     17.24s CPU     19.14s WALL (    1630 calls)
     add_vuspsi   :      0.54s CPU      0.59s WALL (    1630 calls)

     General routines
     calbec       :      1.37s CPU      2.31s WALL (    1810 calls)
     fft          :      0.04s CPU      0.08s WALL (     125 calls)
     ffts         :      0.00s CPU      0.00s WALL (      10 calls)
     fftw         :     19.13s CPU     21.15s WALL (  151856 calls)
 
     Parallel routines
 
     PWSCF        :     35.55s CPU     47.88s WALL

 
   This run was terminated on:  21:18: 3   7May2025            

=------------------------------------------------------------------------------=
   JOB DONE.
=------------------------------------------------------------------------------=
