
     Program PWSCF v.6.8 starts on  7May2025 at 21:18: 4 

     This program is part of the open-source Quantum ESPRESSO suite
     for quantum simulation of materials; please cite
         "P. Giannozzi et al., J. Phys.:Condens. Matter 21 395502 (2009);
         "P. Giannozzi et al., J. Phys.:Condens. Matter 29 465901 (2017);
         "P. Giannozzi et al., J. Chem. Phys. 152 154105 (2020);
          URL http://www.quantum-espresso.org", 
     in publications or presentations arising from this work. More details at
     http://www.quantum-espresso.org/quote

     Parallel version (MPI & OpenMP), running on      56 processor cores
     Number of MPI processes:                56
     Threads/MPI process:                     1

     MPI processes distributed on     1 nodes
     R & G space division:  proc/nbgrp/npool/nimage =      56
     185751 MiB available memory on the printing compute node when the environment starts
 
     Reading input from plus_e.in

     Current dimensions of program PWSCF are:
     Max number of different atomic species (ntypx) = 10
     Max number of k-points (npk) =  40000
     Max angular momentum in pseudopotentials (lmaxx) =  4
     Found symmetry operation: I + ( -0.5000 -0.5000  0.0000)
     This is a supercell, fractional translations are disabled

     Subspace diagonalization in iterative solution of the eigenvalue problem:
     one sub-group per band group will be used
     scalapack distributed-memory algorithm (size of sub-group:  7*  7 procs)

 
     Parallelization info
     --------------------
     sticks:   dense  smooth     PW     G-vecs:    dense   smooth      PW
     Min          53      53     15                 2223     2223     325
     Max          54      54     16                 2228     2228     329
     Sum        3005    3005    845               124601   124601   18329
 
     Using Slab Decomposition
 


     bravais-lattice index     =            0
     lattice parameter (alat)  =      10.8848  a.u.
     unit-cell volume          =    1289.6268 (a.u.)^3
     number of atoms/cell      =            8
     number of atomic types    =            1
     number of electrons       =       112.00
     number of Kohn-Sham states=           67
     kinetic-energy cutoff     =      80.0000  Ry
     charge density cutoff     =     320.0000  Ry
     scf convergence threshold =      1.0E-08
     mixing beta               =       0.4000
     number of iterations used =            8  plain     mixing
     Exchange-correlation= PBE
                           (   1   4   3   4   0   0   0)

     celldm(1)=  10.884822  celldm(2)=   0.000000  celldm(3)=   0.000000
     celldm(4)=   0.000000  celldm(5)=   0.000000  celldm(6)=   0.000000

     crystal axes: (cart. coord. in units of alat)
               a(1) = (   1.000000   0.010000   0.000000 )  
               a(2) = (   0.000000   1.000000   0.000000 )  
               a(3) = (   0.000000   0.000000   1.000000 )  

     reciprocal axes: (cart. coord. in units 2 pi/alat)
               b(1) = (  1.000000  0.000000  0.000000 )  
               b(2) = ( -0.010000  1.000000  0.000000 )  
               b(3) = (  0.000000  0.000000  1.000000 )  


     PseudoPot. # 1 for Ge read from file:
     ./Ge.upf
     MD5 check sum: 087fa14d6c89b52166990835c3b338da
     Pseudo is Norm-conserving + core correction, Zval = 14.0
     Generated using ONCVPSP code by D. R. Hamann
     Using radial grid of 1560 points,  6 beta functions with: 
                l(1) =   0
                l(2) =   0
                l(3) =   1
                l(4) =   1
                l(5) =   2
                l(6) =   2

     atomic species   valence    mass     pseudopotential
        Ge            14.00    72.63000     Ge( 1.00)

     No symmetry found



   Cartesian axes

     site n.     atom                  positions (alat units)
         1           Ge  tau(   1) = (   0.0000000   0.0000000   0.0000000  )
         2           Ge  tau(   2) = (   0.5000000   0.5050000   0.0000000  )
         3           Ge  tau(   3) = (   0.5000000   0.0050000   0.5000000  )
         4           Ge  tau(   4) = (   0.0000000   0.5000000   0.5000000  )
         5           Ge  tau(   5) = (   0.2500000   0.2525000   0.2500000  )
         6           Ge  tau(   6) = (   0.7500000   0.7575000   0.2500000  )
         7           Ge  tau(   7) = (   0.7500000   0.2575000   0.7500000  )
         8           Ge  tau(   8) = (   0.2500000   0.7525000   0.7500000  )

     number of k points=    36  Gaussian smearing, width (Ry)=  0.0100
                       cart. coord. in units 2pi/alat
        k(    1) = (   0.0000000   0.0000000   0.0000000), wk =   0.0312500
        k(    2) = (   0.0000000   0.0000000   0.2500000), wk =   0.0625000
        k(    3) = (   0.0000000   0.0000000  -0.5000000), wk =   0.0312500
        k(    4) = (  -0.0025000   0.2500000   0.0000000), wk =   0.0625000
        k(    5) = (  -0.0025000   0.2500000   0.2500000), wk =   0.0625000
        k(    6) = (  -0.0025000   0.2500000  -0.5000000), wk =   0.0625000
        k(    7) = (  -0.0025000   0.2500000  -0.2500000), wk =   0.0625000
        k(    8) = (   0.0050000  -0.5000000   0.0000000), wk =   0.0312500
        k(    9) = (   0.0050000  -0.5000000   0.2500000), wk =   0.0625000
        k(   10) = (   0.0050000  -0.5000000  -0.5000000), wk =   0.0312500
        k(   11) = (   0.2500000   0.0000000   0.0000000), wk =   0.0625000
        k(   12) = (   0.2500000   0.0000000   0.2500000), wk =   0.0625000
        k(   13) = (   0.2500000   0.0000000  -0.5000000), wk =   0.0625000
        k(   14) = (   0.2500000   0.0000000  -0.2500000), wk =   0.0625000
        k(   15) = (   0.2475000   0.2500000   0.0000000), wk =   0.0625000
        k(   16) = (   0.2475000   0.2500000   0.2500000), wk =   0.0625000
        k(   17) = (   0.2475000   0.2500000  -0.5000000), wk =   0.0625000
        k(   18) = (   0.2475000   0.2500000  -0.2500000), wk =   0.0625000
        k(   19) = (   0.2550000  -0.5000000   0.0000000), wk =   0.0625000
        k(   20) = (   0.2550000  -0.5000000   0.2500000), wk =   0.0625000
        k(   21) = (   0.2550000  -0.5000000  -0.5000000), wk =   0.0625000
        k(   22) = (   0.2550000  -0.5000000  -0.2500000), wk =   0.0625000
        k(   23) = (   0.2525000  -0.2500000   0.0000000), wk =   0.0625000
        k(   24) = (   0.2525000  -0.2500000   0.2500000), wk =   0.0625000
        k(   25) = (   0.2525000  -0.2500000  -0.5000000), wk =   0.0625000
        k(   26) = (   0.2525000  -0.2500000  -0.2500000), wk =   0.0625000
        k(   27) = (  -0.5000000   0.0000000   0.0000000), wk =   0.0312500
        k(   28) = (  -0.5000000   0.0000000   0.2500000), wk =   0.0625000
        k(   29) = (  -0.5000000   0.0000000  -0.5000000), wk =   0.0312500
        k(   30) = (  -0.5025000   0.2500000   0.0000000), wk =   0.0625000
        k(   31) = (  -0.5025000   0.2500000   0.2500000), wk =   0.0625000
        k(   32) = (  -0.5025000   0.2500000  -0.5000000), wk =   0.0625000
        k(   33) = (  -0.5025000   0.2500000  -0.2500000), wk =   0.0625000
        k(   34) = (  -0.4950000  -0.5000000   0.0000000), wk =   0.0312500
        k(   35) = (  -0.4950000  -0.5000000   0.2500000), wk =   0.0625000
        k(   36) = (  -0.4950000  -0.5000000  -0.5000000), wk =   0.0312500

     Dense  grid:   124601 G-vectors     FFT dimensions: (  64,  64,  64)

     Estimated max dynamical RAM per process >      15.35 MB

     Estimated total dynamical RAM >     859.65 MB

     Initial potential from superposition of free atoms

     starting charge  111.99342, renormalised to  112.00000
     Starting wfcs are   72 randomized atomic wfcs

     total cpu time spent up to now is        1.4 secs

     Self-consistent Calculation

     iteration #  1     ecut=    80.00 Ry     beta= 0.40
     Davidson diagonalization with overlap
     ethr =  1.00E-02,  avg # of iterations =  3.6

     Threshold (ethr) on eigenvalues was too large:
     Diagonalizing with lowered threshold

     Davidson diagonalization with overlap
     ethr =  1.01E-04,  avg # of iterations =  5.5

     total cpu time spent up to now is       10.7 secs

     total energy              =   -1429.14164674 Ry
     estimated scf accuracy    <       0.12478858 Ry

     iteration #  2     ecut=    80.00 Ry     beta= 0.40
     Davidson diagonalization with overlap
     ethr =  1.11E-04,  avg # of iterations =  1.0

     total cpu time spent up to now is       13.6 secs

     total energy              =   -1429.13692759 Ry
     estimated scf accuracy    <       0.03883079 Ry

     iteration #  3     ecut=    80.00 Ry     beta= 0.40
     Davidson diagonalization with overlap
     ethr =  3.47E-05,  avg # of iterations =  2.1

     total cpu time spent up to now is       16.9 secs

     total energy              =   -1429.13893686 Ry
     estimated scf accuracy    <       0.00044325 Ry

     iteration #  4     ecut=    80.00 Ry     beta= 0.40
     Davidson diagonalization with overlap
     c_bands:  1 eigenvalues not converged
     c_bands:  1 eigenvalues not converged
     ethr =  3.96E-07,  avg # of iterations =  8.6

     total cpu time spent up to now is       23.1 secs

     total energy              =   -1429.13903969 Ry
     estimated scf accuracy    <       0.00002911 Ry

     iteration #  5     ecut=    80.00 Ry     beta= 0.40
     Davidson diagonalization with overlap
     ethr =  2.60E-08,  avg # of iterations =  3.1

     total cpu time spent up to now is       26.7 secs

     total energy              =   -1429.13903958 Ry
     estimated scf accuracy    <       0.00000336 Ry

     iteration #  6     ecut=    80.00 Ry     beta= 0.40
     Davidson diagonalization with overlap
     ethr =  3.00E-09,  avg # of iterations =  2.7

     total cpu time spent up to now is       31.0 secs

     total energy              =   -1429.13904046 Ry
     estimated scf accuracy    <       0.00000053 Ry

     iteration #  7     ecut=    80.00 Ry     beta= 0.40
     Davidson diagonalization with overlap
     ethr =  4.69E-10,  avg # of iterations =  2.0

     total cpu time spent up to now is       34.2 secs

     total energy              =   -1429.13904040 Ry
     estimated scf accuracy    <       0.00000015 Ry

     iteration #  8     ecut=    80.00 Ry     beta= 0.40
     Davidson diagonalization with overlap
     ethr =  1.33E-10,  avg # of iterations =  2.0

     total cpu time spent up to now is       38.3 secs

     total energy              =   -1429.13904045 Ry
     estimated scf accuracy    <       0.00000005 Ry

     iteration #  9     ecut=    80.00 Ry     beta= 0.40
     Davidson diagonalization with overlap
     ethr =  4.71E-11,  avg # of iterations =  1.0

     total cpu time spent up to now is       41.2 secs

     End of self-consistent calculation

          k = 0.0000 0.0000 0.0000 ( 15561 PWs)   bands (ev):

   -16.0095 -16.0060 -16.0060 -16.0060 -16.0060 -16.0025 -15.9810 -15.9761
   -15.9712 -15.9458 -15.9457 -15.9307 -15.9305 -15.9305 -15.9305 -15.9305
   -15.9304 -15.8500 -15.8477 -15.8477 -15.8477 -15.8476 -15.8453 -15.7987
   -15.7973 -15.7973 -15.7972 -15.7972 -15.7957 -15.7660 -15.7615 -15.7569
   -15.7540 -15.7540 -15.7181 -15.7152 -15.7152 -15.7152 -15.7152 -15.7122
    -3.5659   0.0659   0.1170   0.1170   0.1172   0.1172   0.1677   5.8741
     5.9192   5.9192   5.9196   5.9196   5.9650   8.3570   8.8038   8.8078
     8.8140   9.5706   9.6231   9.6231   9.6235   9.6235   9.6770  11.2652
    11.3403  11.4103  15.1149

          k = 0.0000 0.0000 0.2500 ( 15593 PWs)   bands (ev):

   -16.0124 -16.0124 -16.0124 -16.0124 -16.0058 -15.9985 -15.9857 -15.9825
   -15.9766 -15.9636 -15.9381 -15.9254 -15.9143 -15.9143 -15.9143 -15.9143
   -15.8865 -15.8847 -15.8490 -15.8490 -15.8490 -15.8490 -15.8406 -15.8112
   -15.8112 -15.8112 -15.8112 -15.8112 -15.7922 -15.7621 -15.7610 -15.7583
   -15.7498 -15.7398 -15.7246 -15.7183 -15.7096 -15.7096 -15.7096 -15.7096
    -3.3242  -1.4430   0.1573   0.1573   0.1575   0.1575   1.9876   5.4909
     5.4909   5.4911   5.4911   6.1272   6.2151   6.2782   7.9715   8.0233
     9.4515  10.4015  10.6930  10.7446  10.7446  10.7451  10.7451  10.7691
    12.4085  12.5021  16.1240

          k = 0.0000 0.0000-0.5000 ( 15610 PWs)   bands (ev):

   -16.0176 -16.0176 -16.0176 -16.0176 -15.9962 -15.9962 -15.9882 -15.9882
   -15.9811 -15.9811 -15.9165 -15.9165 -15.8945 -15.8945 -15.8945 -15.8945
   -15.8862 -15.8862 -15.8537 -15.8537 -15.8537 -15.8537 -15.8372 -15.8372
   -15.8258 -15.8258 -15.8258 -15.8258 -15.7810 -15.7810 -15.7417 -15.7417
   -15.7408 -15.7408 -15.7336 -15.7336 -15.7050 -15.7050 -15.7050 -15.7050
    -2.6073  -2.6073   0.1995   0.1995   0.1995   0.1995   4.0682   4.0682
     5.1550   5.1550   5.1550   5.1550   6.8629   6.8630   6.9404   6.9404
     9.8698   9.8698  11.4117  11.4117  12.9178  12.9178  12.9178  12.9179
    13.4882  13.4882  13.4882

          k =-0.0025 0.2500 0.0000 ( 15599 PWs)   bands (ev):

   -16.0155 -16.0139 -16.0110 -16.0094 -16.0023 -16.0021 -15.9859 -15.9811
   -15.9779 -15.9634 -15.9381 -15.9252 -15.9147 -15.9146 -15.9141 -15.9140
   -15.8863 -15.8846 -15.8514 -15.8500 -15.8480 -15.8465 -15.8408 -15.8125
   -15.8115 -15.8113 -15.8109 -15.8098 -15.7926 -15.7622 -15.7611 -15.7541
   -15.7541 -15.7394 -15.7215 -15.7214 -15.7124 -15.7110 -15.7082 -15.7068
    -3.3241  -1.4422   0.1061   0.1296   0.1851   0.2083   1.9877   5.4659
     5.4811   5.5008   5.5159   6.1706   6.1709   6.2794   7.9966   7.9971
     9.4531  10.3985  10.6726  10.7196  10.7321  10.7386  10.7585  10.8187
    12.4547  12.4588  16.0110

          k =-0.0025 0.2500 0.2500 ( 15596 PWs)   bands (ev):

   -16.0205 -16.0119 -16.0097 -16.0080 -16.0067 -16.0057 -15.9941 -15.9862
   -15.9700 -15.9448 -15.9448 -15.9295 -15.9287 -15.9197 -15.8856 -15.8856
   -15.8784 -15.8738 -15.8734 -15.8577 -15.8502 -15.8498 -15.8449 -15.8412
   -15.8128 -15.8127 -15.7981 -15.7914 -15.7823 -15.7814 -15.7813 -15.7565
   -15.7463 -15.7310 -15.7177 -15.7156 -15.7150 -15.7140 -15.7120 -15.7024
    -3.0888  -1.2847  -1.2839  -0.3449   0.6847   1.7902   1.7904   4.7497
     5.1384   5.5218   5.5218   6.1004   6.1005   6.3348   7.1863   8.4470
     9.9949  10.2942  10.6863  10.6927  11.2921  11.3008  11.8860  12.0012
    12.7833  13.4080  14.2347

          k =-0.0025 0.2500-0.5000 ( 15578 PWs)   bands (ev):

   -16.0193 -16.0193 -16.0101 -16.0101 -16.0032 -16.0032 -15.9969 -15.9969
   -15.9613 -15.9613 -15.9232 -15.9232 -15.9147 -15.9146 -15.8900 -15.8900
   -15.8816 -15.8816 -15.8591 -15.8591 -15.8548 -15.8548 -15.8286 -15.8286
   -15.8271 -15.8271 -15.8024 -15.8024 -15.7861 -15.7861 -15.7676 -15.7676
   -15.7304 -15.7304 -15.7225 -15.7225 -15.7127 -15.7127 -15.7043 -15.7043
    -2.3949  -2.3949  -0.8662  -0.8662   1.2778   1.2778   3.4724   3.4724
     4.7884   4.7884   6.1343   6.1343   6.2579   6.2579   7.2879   7.2879
    11.1360  11.1360  11.3797  11.3797  11.3925  11.3925  13.1961  13.1961
    13.4346  13.6710  13.6718

          k =-0.0025 0.2500-0.2500 ( 15596 PWs)   bands (ev):

   -16.0205 -16.0119 -16.0097 -16.0080 -16.0067 -16.0057 -15.9941 -15.9862
   -15.9700 -15.9448 -15.9448 -15.9295 -15.9287 -15.9197 -15.8856 -15.8856
   -15.8784 -15.8738 -15.8734 -15.8577 -15.8502 -15.8498 -15.8449 -15.8412
   -15.8128 -15.8127 -15.7981 -15.7914 -15.7823 -15.7814 -15.7813 -15.7565
   -15.7463 -15.7310 -15.7177 -15.7156 -15.7150 -15.7140 -15.7120 -15.7024
    -3.0888  -1.2847  -1.2839  -0.3449   0.6847   1.7902   1.7904   4.7497
     5.1384   5.5218   5.5218   6.1004   6.1005   6.3348   7.1863   8.4470
     9.9949  10.2942  10.6863  10.6927  11.2921  11.3008  11.8860  12.0012
    12.7833  13.4080  14.2341

          k = 0.0050-0.5000 0.0000 ( 15600 PWs)   bands (ev):

   -16.0200 -16.0200 -16.0152 -16.0152 -15.9930 -15.9930 -15.9922 -15.9922
   -15.9804 -15.9803 -15.9165 -15.9165 -15.8953 -15.8953 -15.8936 -15.8936
   -15.8859 -15.8859 -15.8563 -15.8562 -15.8511 -15.8510 -15.8376 -15.8376
   -15.8266 -15.8266 -15.8251 -15.8251 -15.7810 -15.7810 -15.7426 -15.7426
   -15.7372 -15.7372 -15.7362 -15.7362 -15.7073 -15.7073 -15.7027 -15.7027
    -2.6070  -2.6070   0.1533   0.1533   0.2457   0.2457   4.0691   4.0691
     5.1543   5.1543   5.1553   5.1553   6.9010   6.9010   6.9013   6.9013
     9.8699   9.8699  11.4098  11.4098  12.8452  12.8452  12.9877  12.9877
    13.4484  13.4484  13.5353

          k = 0.0050-0.5000 0.2500 ( 15588 PWs)   bands (ev):

   -16.0197 -16.0197 -16.0096 -16.0096 -16.0021 -16.0021 -15.9980 -15.9980
   -15.9612 -15.9612 -15.9232 -15.9232 -15.9146 -15.9146 -15.8899 -15.8899
   -15.8816 -15.8816 -15.8602 -15.8601 -15.8539 -15.8539 -15.8288 -15.8288
   -15.8270 -15.8270 -15.8024 -15.8024 -15.7861 -15.7861 -15.7676 -15.7676
   -15.7298 -15.7298 -15.7231 -15.7231 -15.7131 -15.7131 -15.7039 -15.7039
    -2.3947  -2.3947  -0.8668  -0.8668   1.2783   1.2783   3.4728   3.4728
     4.7886   4.7886   6.1334   6.1334   6.2573   6.2573   7.2889   7.2889
    11.1446  11.1447  11.3800  11.3800  11.3803  11.3803  13.1823  13.1823
    13.4337  13.4337  13.6899

          k = 0.0050-0.5000-0.5000 ( 15604 PWs)   bands (ev):

   -16.0123 -16.0123 -16.0123 -16.0123 -16.0044 -16.0044 -16.0044 -16.0044
   -15.9377 -15.9377 -15.9377 -15.9377 -15.9074 -15.9074 -15.9074 -15.9074
   -15.8843 -15.8843 -15.8843 -15.8842 -15.8218 -15.8218 -15.8218 -15.8218
   -15.8030 -15.8030 -15.8030 -15.8030 -15.7948 -15.7948 -15.7948 -15.7948
   -15.7189 -15.7189 -15.7189 -15.7189 -15.7134 -15.7134 -15.7134 -15.7134
    -1.7843  -1.7843  -1.7843  -1.7843   2.3777   2.3777   2.3777   2.3777
     5.1829   5.1829   5.1829   5.1829   7.3952   7.3952   7.3952   7.3952
    10.6579  10.6579  10.6579  10.6579  13.4711  13.4711  13.4712  13.4715
    13.7320  13.7321  13.7323

          k = 0.2500 0.0000 0.0000 ( 15597 PWs)   bands (ev):

   -16.0155 -16.0139 -16.0109 -16.0094 -16.0023 -16.0021 -15.9859 -15.9811
   -15.9779 -15.9634 -15.9381 -15.9252 -15.9146 -15.9146 -15.9141 -15.9140
   -15.8863 -15.8846 -15.8514 -15.8500 -15.8480 -15.8465 -15.8408 -15.8125
   -15.8115 -15.8113 -15.8109 -15.8098 -15.7926 -15.7622 -15.7611 -15.7541
   -15.7541 -15.7394 -15.7215 -15.7213 -15.7124 -15.7110 -15.7082 -15.7069
    -3.3242  -1.4423   0.1061   0.1298   0.1853   0.2083   1.9874   5.4660
     5.4809   5.5006   5.5159   6.1710   6.1712   6.2792   7.9967   7.9974
     9.4536  10.3987  10.6725  10.7199  10.7315  10.7384  10.7580  10.8186
    12.4544  12.4589  16.0107

          k = 0.2500 0.0000 0.2500 ( 15596 PWs)   bands (ev):

   -16.0205 -16.0119 -16.0097 -16.0080 -16.0067 -16.0057 -15.9941 -15.9862
   -15.9700 -15.9448 -15.9448 -15.9295 -15.9287 -15.9197 -15.8856 -15.8856
   -15.8784 -15.8738 -15.8734 -15.8577 -15.8502 -15.8498 -15.8449 -15.8412
   -15.8128 -15.8127 -15.7981 -15.7914 -15.7823 -15.7814 -15.7813 -15.7565
   -15.7463 -15.7310 -15.7177 -15.7156 -15.7150 -15.7140 -15.7120 -15.7024
    -3.0888  -1.2847  -1.2840  -0.3448   0.6849   1.7901   1.7904   4.7497
     5.1384   5.5219   5.5221   6.1004   6.1005   6.3344   7.1866   8.4467
     9.9945  10.2941  10.6862  10.6932  11.2923  11.3006  11.8861  12.0016
    12.7827  13.4077  14.2338

          k = 0.2500 0.0000-0.5000 ( 15576 PWs)   bands (ev):

   -16.0193 -16.0193 -16.0101 -16.0101 -16.0032 -16.0032 -15.9969 -15.9969
   -15.9613 -15.9613 -15.9232 -15.9232 -15.9147 -15.9146 -15.8900 -15.8900
   -15.8817 -15.8816 -15.8591 -15.8591 -15.8548 -15.8548 -15.8286 -15.8286
   -15.8270 -15.8270 -15.8024 -15.8024 -15.7861 -15.7861 -15.7676 -15.7676
   -15.7304 -15.7304 -15.7225 -15.7225 -15.7127 -15.7127 -15.7043 -15.7043
    -2.3949  -2.3949  -0.8662  -0.8662   1.2779   1.2779   3.4724   3.4724
     4.7886   4.7886   6.1345   6.1345   6.2577   6.2577   7.2877   7.2877
    11.1359  11.1359  11.3793  11.3793  11.3922  11.3922  13.1965  13.1966
    13.4343  13.4344  13.6722

          k = 0.2500 0.0000-0.2500 ( 15596 PWs)   bands (ev):

   -16.0205 -16.0119 -16.0097 -16.0080 -16.0067 -16.0057 -15.9941 -15.9862
   -15.9700 -15.9448 -15.9448 -15.9295 -15.9287 -15.9197 -15.8856 -15.8856
   -15.8784 -15.8738 -15.8734 -15.8577 -15.8502 -15.8498 -15.8449 -15.8412
   -15.8128 -15.8127 -15.7981 -15.7914 -15.7823 -15.7814 -15.7813 -15.7565
   -15.7463 -15.7310 -15.7177 -15.7156 -15.7150 -15.7140 -15.7120 -15.7024
    -3.0888  -1.2847  -1.2840  -0.3448   0.6849   1.7901   1.7904   4.7497
     5.1384   5.5219   5.5221   6.1004   6.1005   6.3344   7.1866   8.4467
     9.9945  10.2941  10.6862  10.6932  11.2923  11.3006  11.8861  12.0016
    12.7827  13.4077  14.2334

          k = 0.2475 0.2500 0.0000 ( 15608 PWs)   bands (ev):

   -16.0179 -16.0101 -16.0100 -16.0100 -16.0063 -16.0063 -15.9962 -15.9868
   -15.9662 -15.9464 -15.9464 -15.9303 -15.9284 -15.9213 -15.8845 -15.8845
   -15.8789 -15.8739 -15.8739 -15.8599 -15.8493 -15.8493 -15.8459 -15.8389
   -15.8139 -15.8139 -15.7965 -15.7887 -15.7835 -15.7806 -15.7806 -15.7583
   -15.7465 -15.7294 -15.7169 -15.7169 -15.7137 -15.7137 -15.7121 -15.7050
    -3.0961  -1.2618  -1.2616  -0.3966   0.7289   1.7626   1.7627   4.7437
     5.1401   5.5232   5.5234   6.1116   6.1117   6.3729   7.1630   8.4524
    10.0437  10.3718  10.6826  10.6832  11.2521  11.2525  11.9488  12.0114
    12.6758  13.3474  14.1614

          k = 0.2475 0.2500 0.2500 ( 15573 PWs)   bands (ev):

   -16.0149 -16.0149 -16.0132 -16.0064 -16.0027 -16.0027 -15.9956 -15.9907
   -15.9655 -15.9440 -15.9440 -15.9425 -15.9221 -15.9220 -15.8869 -15.8857
   -15.8857 -15.8717 -15.8700 -15.8699 -15.8511 -15.8511 -15.8506 -15.8139
   -15.8139 -15.8124 -15.7854 -15.7845 -15.7839 -15.7839 -15.7837 -15.7727
   -15.7352 -15.7315 -15.7204 -15.7204 -15.7175 -15.7107 -15.7089 -15.7089
    -2.8708  -1.2246  -1.1821  -1.1820   1.5421   1.5422   1.5740   4.1397
     5.3060   5.3088   5.3089   6.5449   6.5453   6.5899   7.9976   7.9994
     9.3329  10.2123  10.2126  10.2653  12.3335  12.4216  12.7560  12.8065
    12.8069  14.0867  14.1316

          k = 0.2475 0.2500-0.5000 ( 15572 PWs)   bands (ev):

   -16.0144 -16.0144 -16.0066 -16.0066 -16.0016 -16.0016 -15.9988 -15.9988
   -15.9591 -15.9591 -15.9342 -15.9342 -15.9130 -15.9129 -15.8988 -15.8988
   -15.8922 -15.8922 -15.8794 -15.8794 -15.8325 -15.8325 -15.8171 -15.8171
   -15.8144 -15.8144 -15.7956 -15.7956 -15.7881 -15.7881 -15.7719 -15.7719
   -15.7285 -15.7285 -15.7234 -15.7234 -15.7165 -15.7165 -15.7097 -15.7097
    -2.2166  -2.2166  -1.0921  -1.0921   1.3196   1.3196   2.7858   2.7858
     5.2970   5.2970   6.6195   6.6195   6.7370   6.7370   7.1957   7.1957
    10.3255  10.3255  11.0367  11.0367  11.9841  11.9841  12.2009  12.2010
    13.4810  13.4810  14.2744

          k = 0.2475 0.2500-0.2500 ( 15573 PWs)   bands (ev):

   -16.0149 -16.0149 -16.0132 -16.0064 -16.0027 -16.0027 -15.9956 -15.9907
   -15.9655 -15.9440 -15.9440 -15.9425 -15.9221 -15.9220 -15.8869 -15.8857
   -15.8857 -15.8717 -15.8700 -15.8699 -15.8511 -15.8511 -15.8506 -15.8139
   -15.8139 -15.8124 -15.7854 -15.7845 -15.7839 -15.7839 -15.7837 -15.7727
   -15.7352 -15.7315 -15.7204 -15.7204 -15.7175 -15.7107 -15.7089 -15.7089
    -2.8708  -1.2246  -1.1821  -1.1820   1.5421   1.5422   1.5740   4.1397
     5.3060   5.3088   5.3089   6.5449   6.5453   6.5899   7.9976   7.9994
     9.3329  10.2123  10.2126  10.2653  12.3335  12.4216  12.7560  12.8065
    12.8069  14.0867  14.1316

          k = 0.2550-0.5000 0.0000 ( 15598 PWs)   bands (ev):

   -16.0208 -16.0174 -16.0131 -16.0073 -16.0039 -15.9993 -15.9986 -15.9981
   -15.9646 -15.9582 -15.9247 -15.9218 -15.9158 -15.9135 -15.8912 -15.8884
   -15.8834 -15.8795 -15.8604 -15.8575 -15.8552 -15.8551 -15.8300 -15.8287
   -15.8279 -15.8255 -15.8032 -15.8015 -15.7875 -15.7846 -15.7698 -15.7652
   -15.7299 -15.7289 -15.7257 -15.7214 -15.7150 -15.7101 -15.7063 -15.7027
    -2.4096  -2.3797  -0.9076  -0.8243   1.2380   1.3168   3.4557   3.4896
     4.7879   4.7893   6.1200   6.1480   6.2457   6.2693   7.2875   7.2892
    11.1166  11.1811  11.3035  11.3143  11.4481  11.4531  13.1862  13.2079
    13.4416  13.6336  13.7109

          k = 0.2550-0.5000 0.2500 ( 15575 PWs)   bands (ev):

   -16.0170 -16.0153 -16.0076 -16.0061 -16.0034 -16.0023 -15.9949 -15.9949
   -15.9625 -15.9581 -15.9352 -15.9325 -15.9139 -15.9117 -15.8984 -15.8965
   -15.8936 -15.8904 -15.8809 -15.8796 -15.8326 -15.8318 -15.8187 -15.8172
   -15.8161 -15.8126 -15.7955 -15.7954 -15.7898 -15.7872 -15.7730 -15.7698
   -15.7322 -15.7314 -15.7225 -15.7195 -15.7194 -15.7162 -15.7089 -15.7069
    -2.2222  -2.1900  -1.1494  -1.0843   1.3181   1.3678   2.7852   2.8026
     5.2750   5.3001   6.6354   6.6527   6.7108   6.7148   7.1497   7.1801
    10.2612  10.3251  10.9846  11.0952  11.9881  12.0832  12.1921  12.2340
    13.4435  13.4481  14.2962

          k = 0.2550-0.5000-0.5000 ( 15552 PWs)   bands (ev):

   -16.0077 -16.0077 -16.0058 -16.0058 -16.0009 -16.0009 -16.0005 -16.0005
   -15.9489 -15.9489 -15.9469 -15.9469 -15.9091 -15.9091 -15.9083 -15.9083
   -15.8992 -15.8992 -15.8966 -15.8966 -15.8089 -15.8088 -15.8061 -15.8061
   -15.7959 -15.7959 -15.7946 -15.7945 -15.7922 -15.7922 -15.7903 -15.7903
   -15.7235 -15.7234 -15.7234 -15.7234 -15.7193 -15.7193 -15.7181 -15.7181
    -1.7213  -1.7213  -1.6796  -1.6796   1.8440   1.8440   1.8626   1.8626
     6.1333   6.1333   6.1679   6.1679   7.4227   7.4227   7.4562   7.4562
    10.0356  10.0356  10.0946  10.0946  12.5245  12.5245  12.5754  12.5754
    12.9192  12.9192  12.9196

          k = 0.2550-0.5000-0.2500 ( 15575 PWs)   bands (ev):

   -16.0170 -16.0153 -16.0076 -16.0061 -16.0034 -16.0023 -15.9949 -15.9949
   -15.9625 -15.9581 -15.9352 -15.9325 -15.9139 -15.9117 -15.8984 -15.8965
   -15.8936 -15.8904 -15.8809 -15.8796 -15.8326 -15.8318 -15.8187 -15.8172
   -15.8161 -15.8126 -15.7955 -15.7954 -15.7898 -15.7872 -15.7730 -15.7698
   -15.7322 -15.7314 -15.7225 -15.7195 -15.7194 -15.7162 -15.7089 -15.7069
    -2.2222  -2.1900  -1.1494  -1.0843   1.3181   1.3678   2.7852   2.8026
     5.2750   5.3001   6.6354   6.6527   6.7108   6.7148   7.1498   7.1801
    10.2612  10.3251  10.9846  11.0952  11.9881  12.0832  12.1921  12.2340
    13.4435  13.4481  14.3994

          k = 0.2525-0.2500 0.0000 ( 15578 PWs)   bands (ev):

   -16.0228 -16.0107 -16.0107 -16.0083 -16.0083 -16.0035 -15.9897 -15.9869
   -15.9748 -15.9433 -15.9433 -15.9293 -15.9289 -15.9179 -15.8866 -15.8866
   -15.8777 -15.8730 -15.8730 -15.8553 -15.8511 -15.8511 -15.8439 -15.8439
   -15.8118 -15.8118 -15.7995 -15.7942 -15.7821 -15.7821 -15.7812 -15.7540
   -15.7462 -15.7332 -15.7176 -15.7156 -15.7156 -15.7132 -15.7132 -15.7001
    -3.0813  -1.3062  -1.3061  -0.2918   0.6387   1.8173   1.8175   4.7555
     5.1372   5.5214   5.5216   6.0879   6.0881   6.2966   7.2092   8.4425
     9.9471  10.2238  10.7040  10.7046  11.3314  11.3318  11.8160  11.9889
    12.8917  13.4688  14.3093

          k = 0.2525-0.2500 0.2500 ( 15579 PWs)   bands (ev):

   -16.0182 -16.0168 -16.0168 -16.0029 -16.0029 -15.9995 -15.9935 -15.9884
   -15.9711 -15.9437 -15.9421 -15.9421 -15.9202 -15.9201 -15.8875 -15.8875
   -15.8863 -15.8681 -15.8681 -15.8662 -15.8542 -15.8535 -15.8535 -15.8133
   -15.8119 -15.8119 -15.7882 -15.7870 -15.7850 -15.7849 -15.7849 -15.7678
   -15.7362 -15.7325 -15.7233 -15.7207 -15.7207 -15.7073 -15.7073 -15.7058
    -2.8549  -1.2285  -1.2284  -1.1871   1.5608   1.5919   1.5919   4.1577
     5.2955   5.2956   5.2980   6.5171   6.5612   6.5616   7.9648   7.9652
     9.2769  10.1795  10.2307  10.2311  12.3191  12.4060  12.8917  12.8921
    12.9427  14.1127  14.1543

          k = 0.2525-0.2500-0.5000 ( 15582 PWs)   bands (ev):

   -16.0175 -16.0175 -16.0064 -16.0064 -16.0049 -16.0049 -15.9913 -15.9913
   -15.9615 -15.9615 -15.9335 -15.9335 -15.9127 -15.9127 -15.8963 -15.8963
   -15.8918 -15.8918 -15.8811 -15.8811 -15.8318 -15.8318 -15.8186 -15.8186
   -15.8142 -15.8142 -15.7955 -15.7955 -15.7889 -15.7889 -15.7710 -15.7710
   -15.7348 -15.7347 -15.7188 -15.7188 -15.7186 -15.7186 -15.7067 -15.7067
    -2.1961  -2.1961  -1.1412  -1.1412   1.3662   1.3662   2.8022   2.8022
     5.2784   5.2784   6.6687   6.6687   6.6871   6.6871   7.1352   7.1353
    10.2628  10.2628  11.0403  11.0403  12.0850  12.0850  12.2233  12.2233
    13.4124  13.4124  14.4576

          k = 0.2525-0.2500-0.2500 ( 15579 PWs)   bands (ev):

   -16.0182 -16.0168 -16.0168 -16.0029 -16.0029 -15.9995 -15.9935 -15.9884
   -15.9711 -15.9437 -15.9421 -15.9421 -15.9202 -15.9201 -15.8875 -15.8875
   -15.8863 -15.8681 -15.8681 -15.8662 -15.8542 -15.8535 -15.8535 -15.8133
   -15.8119 -15.8119 -15.7882 -15.7870 -15.7850 -15.7849 -15.7849 -15.7678
   -15.7362 -15.7325 -15.7233 -15.7207 -15.7207 -15.7073 -15.7073 -15.7058
    -2.8549  -1.2285  -1.2284  -1.1871   1.5608   1.5919   1.5919   4.1577
     5.2955   5.2956   5.2980   6.5171   6.5612   6.5616   7.9648   7.9652
     9.2769  10.1795  10.2307  10.2311  12.3191  12.4060  12.8916  12.8921
    12.9427  14.1127  14.1543

          k =-0.5000 0.0000 0.0000 ( 15598 PWs)   bands (ev):

   -16.0200 -16.0200 -16.0152 -16.0152 -15.9931 -15.9931 -15.9922 -15.9922
   -15.9804 -15.9804 -15.9165 -15.9165 -15.8953 -15.8953 -15.8936 -15.8936
   -15.8859 -15.8859 -15.8563 -15.8563 -15.8511 -15.8511 -15.8376 -15.8376
   -15.8266 -15.8266 -15.8251 -15.8251 -15.7810 -15.7810 -15.7426 -15.7426
   -15.7372 -15.7372 -15.7362 -15.7362 -15.7073 -15.7073 -15.7027 -15.7027
    -2.6071  -2.6071   0.1534   0.1534   0.2458   0.2458   4.0688   4.0688
     5.1543   5.1543   5.1553   5.1553   6.9014   6.9014   6.9015   6.9015
     9.8703   9.8703  11.4098  11.4098  12.8447  12.8447  12.9870  12.9870
    13.4479  13.4479  13.5349

          k =-0.5000 0.0000 0.2500 ( 15586 PWs)   bands (ev):

   -16.0197 -16.0197 -16.0096 -16.0096 -16.0021 -16.0021 -15.9981 -15.9981
   -15.9612 -15.9612 -15.9232 -15.9232 -15.9146 -15.9146 -15.8899 -15.8899
   -15.8816 -15.8816 -15.8602 -15.8602 -15.8538 -15.8538 -15.8288 -15.8288
   -15.8270 -15.8270 -15.8024 -15.8024 -15.7861 -15.7861 -15.7676 -15.7676
   -15.7298 -15.7298 -15.7231 -15.7231 -15.7131 -15.7131 -15.7039 -15.7039
    -2.3948  -2.3947  -0.8668  -0.8668   1.2785   1.2785   3.4728   3.4728
     4.7887   4.7887   6.1337   6.1337   6.2571   6.2571   7.2887   7.2887
    11.1451  11.1451  11.3793  11.3793  11.3802  11.3802  13.1820  13.1820
    13.4334  13.6881  13.6897

          k =-0.5000 0.0000-0.5000 ( 15600 PWs)   bands (ev):

   -16.0123 -16.0123 -16.0123 -16.0123 -16.0044 -16.0044 -16.0044 -16.0044
   -15.9377 -15.9377 -15.9377 -15.9377 -15.9074 -15.9074 -15.9074 -15.9074
   -15.8843 -15.8843 -15.8842 -15.8842 -15.8218 -15.8218 -15.8218 -15.8218
   -15.8030 -15.8030 -15.8030 -15.8030 -15.7948 -15.7948 -15.7948 -15.7948
   -15.7189 -15.7189 -15.7189 -15.7189 -15.7134 -15.7134 -15.7134 -15.7134
    -1.7844  -1.7844  -1.7844  -1.7844   2.3778   2.3778   2.3778   2.3778
     5.1832   5.1832   5.1832   5.1832   7.3948   7.3948   7.3949   7.3949
    10.6575  10.6575  10.6575  10.6575  13.4711  13.4712  13.4712  13.4717
    13.7323  13.7325  13.7331

          k =-0.5025 0.2500 0.0000 ( 15598 PWs)   bands (ev):

   -16.0208 -16.0174 -16.0131 -16.0073 -16.0039 -15.9993 -15.9986 -15.9982
   -15.9646 -15.9582 -15.9247 -15.9217 -15.9158 -15.9135 -15.8912 -15.8884
   -15.8834 -15.8795 -15.8604 -15.8575 -15.8551 -15.8551 -15.8300 -15.8287
   -15.8279 -15.8256 -15.8032 -15.8015 -15.7875 -15.7846 -15.7698 -15.7652
   -15.7299 -15.7289 -15.7257 -15.7214 -15.7150 -15.7101 -15.7063 -15.7027
    -2.4096  -2.3798  -0.9076  -0.8242   1.2380   1.3168   3.4556   3.4895
     4.7878   4.7892   6.1201   6.1481   6.2458   6.2694   7.2876   7.2892
    11.1171  11.1816  11.3037  11.3139  11.4478  11.4533  13.1853  13.2070
    13.4265  13.4418  13.6334

          k =-0.5025 0.2500 0.2500 ( 15575 PWs)   bands (ev):

   -16.0170 -16.0153 -16.0076 -16.0061 -16.0034 -16.0023 -15.9949 -15.9949
   -15.9625 -15.9581 -15.9352 -15.9325 -15.9139 -15.9117 -15.8984 -15.8965
   -15.8936 -15.8904 -15.8809 -15.8796 -15.8325 -15.8318 -15.8188 -15.8172
   -15.8161 -15.8126 -15.7955 -15.7955 -15.7898 -15.7872 -15.7730 -15.7698
   -15.7322 -15.7314 -15.7225 -15.7195 -15.7194 -15.7162 -15.7089 -15.7069
    -2.2222  -2.1901  -1.1494  -1.0842   1.3181   1.3678   2.7852   2.8026
     5.2751   5.3002   6.6353   6.6526   6.7106   6.7147   7.1500   7.1804
    10.2613  10.3252  10.9842  11.0947  11.9881  12.0832  12.1918  12.2337
    13.4437  13.4483  14.4057

          k =-0.5025 0.2500-0.5000 ( 15552 PWs)   bands (ev):

   -16.0077 -16.0077 -16.0058 -16.0058 -16.0009 -16.0009 -16.0005 -16.0005
   -15.9489 -15.9489 -15.9469 -15.9469 -15.9091 -15.9091 -15.9083 -15.9083
   -15.8992 -15.8992 -15.8966 -15.8966 -15.8089 -15.8088 -15.8061 -15.8061
   -15.7959 -15.7959 -15.7945 -15.7945 -15.7922 -15.7922 -15.7903 -15.7903
   -15.7235 -15.7235 -15.7234 -15.7234 -15.7193 -15.7193 -15.7181 -15.7181
    -1.7214  -1.7214  -1.6796  -1.6796   1.8441   1.8441   1.8627   1.8627
     6.1336   6.1336   6.1682   6.1682   7.4224   7.4224   7.4558   7.4558
    10.0354  10.0355  10.0944  10.0944  12.5246  12.5246  12.5756  12.5756
    12.9191  12.9191  12.9195

          k =-0.5025 0.2500-0.2500 ( 15575 PWs)   bands (ev):

   -16.0170 -16.0153 -16.0076 -16.0061 -16.0034 -16.0023 -15.9949 -15.9949
   -15.9625 -15.9581 -15.9352 -15.9325 -15.9139 -15.9117 -15.8984 -15.8965
   -15.8936 -15.8904 -15.8809 -15.8796 -15.8325 -15.8318 -15.8188 -15.8172
   -15.8161 -15.8126 -15.7955 -15.7955 -15.7898 -15.7872 -15.7730 -15.7698
   -15.7322 -15.7314 -15.7225 -15.7195 -15.7194 -15.7162 -15.7089 -15.7069
    -2.2222  -2.1901  -1.1494  -1.0842   1.3181   1.3678   2.7852   2.8026
     5.2751   5.3002   6.6353   6.6526   6.7106   6.7147   7.1500   7.1804
    10.2613  10.3252  10.9842  11.0947  11.9881  12.0832  12.1918  12.2337
    13.4437  13.4483  14.4022

          k =-0.4950-0.5000 0.0000 ( 15588 PWs)   bands (ev):

   -16.0125 -16.0125 -16.0106 -16.0106 -16.0081 -16.0081 -16.0021 -16.0021
   -15.9408 -15.9408 -15.9347 -15.9347 -15.9091 -15.9091 -15.9056 -15.9056
   -15.8864 -15.8864 -15.8819 -15.8819 -15.8246 -15.8246 -15.8192 -15.8192
   -15.8062 -15.8062 -15.7998 -15.7998 -15.7970 -15.7970 -15.7926 -15.7926
   -15.7202 -15.7202 -15.7156 -15.7156 -15.7156 -15.7156 -15.7132 -15.7132
    -1.8136  -1.8136  -1.7546  -1.7546   2.3494   2.3495   2.4050   2.4050
     5.1761   5.1761   5.1901   5.1901   7.3760   7.3760   7.4147   7.4147
    10.6097  10.6097  10.7090  10.7090  13.4283  13.4283  13.5245  13.5245
    13.7164  13.7279  13.7568

          k =-0.4950-0.5000 0.2500 ( 15560 PWs)   bands (ev):

   -16.0068 -16.0068 -16.0049 -16.0049 -16.0047 -16.0047 -15.9984 -15.9984
   -15.9507 -15.9507 -15.9453 -15.9453 -15.9106 -15.9106 -15.9066 -15.9066
   -15.8989 -15.8989 -15.8969 -15.8969 -15.8089 -15.8089 -15.8060 -15.8060
   -15.7971 -15.7971 -15.7952 -15.7952 -15.7917 -15.7917 -15.7890 -15.7890
   -15.7246 -15.7246 -15.7213 -15.7213 -15.7196 -15.7196 -15.7187 -15.7187
    -1.7310  -1.7310  -1.6696  -1.6696   1.8325   1.8325   1.8736   1.8736
     6.1426   6.1426   6.1585   6.1585   7.4210   7.4210   7.4583   7.4583
    10.0135  10.0135  10.1186  10.1186  12.5448  12.5448  12.5543  12.5543
    12.8669  12.8669  12.9713

          k =-0.4950-0.5000-0.5000 ( 15440 PWs)   bands (ev):

   -16.0012 -16.0012 -15.9988 -15.9988 -15.9964 -15.9964 -15.9940 -15.9940
   -15.9627 -15.9627 -15.9582 -15.9582 -15.9114 -15.9114 -15.9096 -15.9096
   -15.9092 -15.9092 -15.9073 -15.9073 -15.7970 -15.7970 -15.7954 -15.7954
   -15.7942 -15.7942 -15.7928 -15.7927 -15.7811 -15.7811 -15.7774 -15.7774
   -15.7301 -15.7301 -15.7289 -15.7289 -15.7258 -15.7258 -15.7244 -15.7244
    -1.6382  -1.6382  -1.5735  -1.5735   1.4280   1.4280   1.4644   1.4644
     7.4589   7.4589   7.4682   7.4682   7.5040   7.5040   7.5122   7.5122
     8.7962   8.7962   8.8690   8.8690  12.4660  12.4685  12.4953  12.4971
    12.5453  12.5662  12.5750

     the Fermi energy is     8.7651 ev

!    total energy              =   -1429.13904045 Ry
     estimated scf accuracy    <          6.8E-09 Ry
     smearing contrib. (-TS)   =      -0.00050900 Ry
     internal energy E=F+TS    =   -1429.13853145 Ry

     The total energy is F=E-TS. E is the sum of the following terms:
     one-electron contribution =    -755.56688059 Ry
     hartree contribution      =     451.46564509 Ry
     xc contribution           =    -349.06313960 Ry
     ewald contribution        =    -775.97415635 Ry

     convergence has been achieved in   9 iterations

     Forces acting on atoms (cartesian axes, Ry/au):

     atom    1 type  1   force =     0.00000018    0.00000007    0.00311389
     atom    2 type  1   force =    -0.00000067    0.00000310    0.00311505
     atom    3 type  1   force =     0.00000217    0.00000413    0.00311628
     atom    4 type  1   force =    -0.00000148    0.00000203    0.00311641
     atom    5 type  1   force =     0.00000244   -0.00000312   -0.00311614
     atom    6 type  1   force =    -0.00000116   -0.00000202   -0.00311482
     atom    7 type  1   force =    -0.00000118   -0.00000428   -0.00311416
     atom    8 type  1   force =    -0.00000030    0.00000009   -0.00311652

     Total force =     0.008812     Total SCF correction =     0.000154


     Computing stress (Cartesian axis) and pressure

          total   stress  (Ry/bohr**3)                   (kbar)     P=        2.35
   0.00001645  -0.00004614   0.00000000            2.42       -6.79        0.00
  -0.00004614   0.00001574  -0.00000000           -6.79        2.32       -0.00
   0.00000000  -0.00000000   0.00001580            0.00       -0.00        2.32


     Writing output data file ./Ge_out/Ge_scf.save/
 
     init_run     :      1.03s CPU      1.34s WALL (       1 calls)
     electrons    :     30.59s CPU     39.81s WALL (       1 calls)
     forces       :      0.31s CPU      0.52s WALL (       1 calls)
     stress       :      1.07s CPU      1.65s WALL (       1 calls)

     Called by init_run:
     wfcinit      :      0.98s CPU      1.28s WALL (       1 calls)
     potinit      :      0.01s CPU      0.02s WALL (       1 calls)
     hinit0       :      0.01s CPU      0.02s WALL (       1 calls)

     Called by electrons:
     c_bands      :     27.10s CPU     35.99s WALL (      10 calls)
     sum_band     :      3.43s CPU      3.73s WALL (      10 calls)
     v_of_rho     :      0.05s CPU      0.06s WALL (      10 calls)
     mix_rho      :      0.01s CPU      0.01s WALL (      10 calls)

     Called by c_bands:
     init_us_2    :      0.23s CPU      0.27s WALL (     828 calls)
     cegterg      :     26.00s CPU     34.64s WALL (     360 calls)

     Called by *egterg:
     cdiaghg      :      5.22s CPU     10.96s WALL (    1464 calls)
     h_psi        :     17.80s CPU     19.84s WALL (    1536 calls)
     g_psi        :      0.05s CPU      0.05s WALL (    1140 calls)

     Called by h_psi:
     h_psi:calbec :      0.90s CPU      1.12s WALL (    1536 calls)
     vloc_psi     :     16.30s CPU     18.06s WALL (    1536 calls)
     add_vuspsi   :      0.53s CPU      0.58s WALL (    1536 calls)

     General routines
     calbec       :      1.30s CPU      2.26s WALL (    1716 calls)
     fft          :      0.04s CPU      0.05s WALL (     125 calls)
     ffts         :      0.00s CPU      0.00s WALL (      10 calls)
     fftw         :     18.07s CPU     19.98s WALL (  148502 calls)
 
     Parallel routines
 
     PWSCF        :     33.87s CPU     44.93s WALL

 
   This run was terminated on:  21:18:49   7May2025            

=------------------------------------------------------------------------------=
   JOB DONE.
=------------------------------------------------------------------------------=
