
     Program PWSCF v.7.2 starts on 26Apr2025 at 19:45: 3 

     This program is part of the open-source Quantum ESPRESSO suite
     for quantum simulation of materials; please cite
         "P. Giannozzi et al., J. Phys.:Condens. Matter 21 395502 (2009);
         "P. Giannozzi et al., J. Phys.:Condens. Matter 29 465901 (2017);
         "P. Giannozzi et al., J. Chem. Phys. 152 154105 (2020);
          URL http://www.quantum-espresso.org", 
     in publications or presentations arising from this work. More details at
     http://www.quantum-espresso.org/quote

     Parallel version (MPI), running on    16 processors

     MPI processes distributed on     1 nodes
     200754 MiB available memory on the printing compute node when the environment starts

     Waiting for input...
     Reading input from standard input
Warning: card &CELL ignored
Warning: card / ignored

     Current dimensions of program PWSCF are:
     Max number of different atomic species (ntypx) = 10
     Max number of k-points (npk) =  40000
     Max angular momentum in pseudopotentials (lmaxx) =  4

     K-points division:     npool     =       4
     R & G space division:  proc/nbgrp/npool/nimage =       4
     Subspace diagonalization in iterative solution of the eigenvalue problem:
     a serial algorithm will be used


     Parallelization info
     --------------------
     sticks:   dense  smooth     PW     G-vecs:    dense   smooth      PW
     Min         422     422    139                 8202     8202    1544
     Max         423     423    140                 8203     8203    1545
     Sum        1689    1689    559                32809    32809    6177

     Using Slab Decomposition



     bravais-lattice index     =            7
     lattice parameter (alat)  =      10.8093  a.u.
     unit-cell volume          =     339.1030 (a.u.)^3
     number of atoms/cell      =            2
     number of atomic types    =            1
     number of electrons       =        28.00
     number of Kohn-Sham states=           18
     kinetic-energy cutoff     =      80.0000  Ry
     charge density cutoff     =     320.0000  Ry
     scf convergence threshold =      1.0E-06
     mixing beta               =       0.4000
     number of iterations used =            8  plain     mixing
     Exchange-correlation= PBE
                           (   1   4   3   4   0   0   0)

     celldm(1)=  10.809256  celldm(2)=   0.000000  celldm(3)=   0.537000
     celldm(4)=   0.000000  celldm(5)=   0.000000  celldm(6)=   0.000000

     crystal axes: (cart. coord. in units of alat)
               a(1) = (   0.500000  -0.500000   0.268500 )  
               a(2) = (   0.500000   0.500000   0.268500 )  
               a(3) = (  -0.500000  -0.500000   0.268500 )  

     reciprocal axes: (cart. coord. in units 2 pi/alat)
               b(1) = (  1.000000 -1.000000  0.000000 )  
               b(2) = (  0.000000  1.000000  1.862197 )  
               b(3) = ( -1.000000  0.000000  1.862197 )  


     PseudoPot. # 1 for Ge read from file:
     ./Ge.upf
     MD5 check sum: 087fa14d6c89b52166990835c3b338da
     Pseudo is Norm-conserving + core correction, Zval = 14.0
     Generated using ONCVPSP code by D. R. Hamann
     Using radial grid of 1560 points,  6 beta functions with: 
                l(1) =   0
                l(2) =   0
                l(3) =   1
                l(4) =   1
                l(5) =   2
                l(6) =   2

     atomic species   valence    mass     pseudopotential
        Ge            14.00    72.63000     Ge( 1.00)

      4 Sym. Ops. (no inversion) found



   Cartesian axes

     site n.     atom                  positions (alat units)
         1           Ge  tau(   1) = (   0.0000000   0.0000000   0.0000000  )
         2           Ge  tau(   2) = (   0.0000000   0.5000000   0.1375000  )

     number of k points=   494  Gaussian smearing, width (Ry)=  0.0100

     Number of k-points >= 100: set verbosity='high' to print them.

     Dense  grid:    32809 G-vectors     FFT dimensions: (  48,  48,  48)

     Estimated max dynamical RAM per process >      43.66 MB

     Estimated total dynamical RAM >     674.49 MB

     Initial potential from superposition of free atoms

     starting charge      27.9984, renormalised to      28.0000
     Starting wfcs are   18 randomized atomic wfcs

     total cpu time spent up to now is        7.3 secs

     Self-consistent Calculation

     iteration #  1     ecut=    80.00 Ry     beta= 0.40
     Davidson diagonalization with overlap
     ethr =  1.00E-02,  avg # of iterations =  2.5

     Threshold (ethr) on eigenvalues was too large:
     Diagonalizing with lowered threshold

     Davidson diagonalization with overlap
     ethr =  1.96E-05,  avg # of iterations =  5.3

     total cpu time spent up to now is       54.8 secs

     total energy              =    -357.21827497 Ry
     estimated scf accuracy    <       0.00563855 Ry

     iteration #  2     ecut=    80.00 Ry     beta= 0.40
     Davidson diagonalization with overlap
     ethr =  2.01E-05,  avg # of iterations =  1.0

     total cpu time spent up to now is       70.6 secs

     total energy              =    -357.21840062 Ry
     estimated scf accuracy    <       0.00151184 Ry

     iteration #  3     ecut=    80.00 Ry     beta= 0.40
     Davidson diagonalization with overlap
     ethr =  5.40E-06,  avg # of iterations =  2.1

     total cpu time spent up to now is       88.6 secs

     total energy              =    -357.21858435 Ry
     estimated scf accuracy    <       0.00009843 Ry

     iteration #  4     ecut=    80.00 Ry     beta= 0.40
     Davidson diagonalization with overlap
     ethr =  3.52E-07,  avg # of iterations =  2.1

     total cpu time spent up to now is      109.0 secs

     total energy              =    -357.21859622 Ry
     estimated scf accuracy    <       0.00000814 Ry

     iteration #  5     ecut=    80.00 Ry     beta= 0.40
     Davidson diagonalization with overlap
     ethr =  2.91E-08,  avg # of iterations =  2.0

     total cpu time spent up to now is      130.0 secs

     End of self-consistent calculation

     Number of k-points >= 100: set verbosity='high' to print the bands.

     the Fermi energy is     7.9371 ev

!    total energy              =    -357.21859808 Ry
     estimated scf accuracy    <       0.00000037 Ry
     smearing contrib. (-TS)   =      -0.00081654 Ry
     internal energy E=F+TS    =    -357.21778154 Ry

     The total energy is F=E-TS. E is the sum of the following terms:
     one-electron contribution =    -170.98576030 Ry
     hartree contribution      =     103.19824078 Ry
     xc contribution           =     -87.00268390 Ry
     ewald contribution        =    -202.42757813 Ry

     convergence has been achieved in   5 iterations

     Forces acting on atoms (cartesian axes, Ry/au):

     atom    1 type  1   force =     0.00000000    0.00000000    0.00016021
     atom    2 type  1   force =     0.00000000    0.00000000   -0.00016021
     The non-local contrib.  to forces
     atom    1 type  1   force =     0.00000000    0.00000000    0.00096950
     atom    2 type  1   force =     0.00000000    0.00000000   -0.00097029
     The ionic contribution  to forces
     atom    1 type  1   force =     0.00000000   -0.00000000    0.00053431
     atom    2 type  1   force =     0.00000000    0.00000000   -0.00053431
     The local contribution  to forces
     atom    1 type  1   force =    -0.00000000    0.00000000   -0.00133812
     atom    2 type  1   force =    -0.00000000    0.00000000    0.00133892
     The core correction contribution to forces
     atom    1 type  1   force =    -0.00000000    0.00000000    0.00000196
     atom    2 type  1   force =    -0.00000000   -0.00000000   -0.00000208
     The Hubbard contrib.    to forces
     atom    1 type  1   force =     0.00000000    0.00000000    0.00000000
     atom    2 type  1   force =     0.00000000    0.00000000    0.00000000
     The SCF correction term to forces
     atom    1 type  1   force =     0.00000000   -0.00000000   -0.00000813
     atom    2 type  1   force =    -0.00000000   -0.00000000    0.00000687

     Total force =     0.000227     Total SCF correction =     0.000011


     Computing stress (Cartesian axis) and pressure

          total   stress  (Ry/bohr**3)                   (kbar)     P=      -97.67
  -0.00068394   0.00000000   0.00000000         -100.61        0.00        0.00
  -0.00000000  -0.00068834   0.00000000           -0.00     -101.26        0.00
   0.00000000   0.00000000  -0.00061965            0.00        0.00      -91.15


     Writing all to output data dir ./Ge_out/Ge_scf.save/

     init_run     :      6.57s CPU      6.97s WALL (       1 calls)
     electrons    :    115.27s CPU    122.74s WALL (       1 calls)
     forces       :      1.04s CPU      1.11s WALL (       1 calls)
     stress       :      9.98s CPU     10.10s WALL (       1 calls)

     Called by init_run:
     wfcinit      :      5.83s CPU      6.21s WALL (       1 calls)
     potinit      :      0.13s CPU      0.14s WALL (       1 calls)
     hinit0       :      0.45s CPU      0.46s WALL (       1 calls)

     Called by electrons:
     c_bands      :     98.72s CPU    105.09s WALL (       6 calls)
     sum_band     :     16.33s CPU     17.36s WALL (       6 calls)
     v_of_rho     :      0.21s CPU      0.25s WALL (       6 calls)
     mix_rho      :      0.02s CPU      0.02s WALL (       6 calls)

     Called by c_bands:
     init_us_2    :      1.77s CPU      1.86s WALL (    1860 calls)
     init_us_2:cp :      1.76s CPU      1.85s WALL (    1860 calls)
     cegterg      :     91.23s CPU     96.77s WALL (     744 calls)

     Called by *egterg:
     cdiaghg      :      2.62s CPU      2.67s WALL (    2568 calls)
     h_psi        :     85.03s CPU     90.65s WALL (    2816 calls)
     g_psi        :      0.42s CPU      0.43s WALL (    1948 calls)

     Called by h_psi:
     h_psi:calbec :      2.48s CPU      2.65s WALL (    2816 calls)
     vloc_psi     :     79.86s CPU     85.22s WALL (    2816 calls)
     add_vuspsi   :      2.30s CPU      2.36s WALL (    2816 calls)

     General routines
     calbec       :      3.14s CPU      3.33s WALL (    3436 calls)
     fft          :      0.38s CPU      0.41s WALL (      85 calls)
     ffts         :      0.01s CPU      0.01s WALL (       6 calls)
     fftw         :     84.41s CPU     90.14s WALL (   88740 calls)

     Parallel routines

     PWSCF        :   2m13.40s CPU   2m23.22s WALL


   This run was terminated on:  19:47:26  26Apr2025            

=------------------------------------------------------------------------------=
   JOB DONE.
=------------------------------------------------------------------------------=
