
     Program PWSCF v.7.2 starts on 27Apr2025 at  8:28:18 

     This program is part of the open-source Quantum ESPRESSO suite
     for quantum simulation of materials; please cite
         "P. Giannozzi et al., J. Phys.:Condens. Matter 21 395502 (2009);
         "P. Giannozzi et al., J. Phys.:Condens. Matter 29 465901 (2017);
         "P. Giannozzi et al., J. Chem. Phys. 152 154105 (2020);
          URL http://www.quantum-espresso.org", 
     in publications or presentations arising from this work. More details at
     http://www.quantum-espresso.org/quote

     Parallel version (MPI), running on    16 processors

     MPI processes distributed on     1 nodes
     200706 MiB available memory on the printing compute node when the environment starts

     Waiting for input...
     Reading input from standard input
Warning: card &CELL ignored
Warning: card / ignored

     Current dimensions of program PWSCF are:
     Max number of different atomic species (ntypx) = 10
     Max number of k-points (npk) =  40000
     Max angular momentum in pseudopotentials (lmaxx) =  4

     K-points division:     npool     =       4
     R & G space division:  proc/nbgrp/npool/nimage =       4
     Subspace diagonalization in iterative solution of the eigenvalue problem:
     a serial algorithm will be used


     Parallelization info
     --------------------
     sticks:   dense  smooth     PW     G-vecs:    dense   smooth      PW
     Min         323     323    108                 5471     5471    1082
     Max         324     324    110                 5472     5472    1083
     Sum        1293    1293    435                21887    21887    4329

     Using Slab Decomposition



     bravais-lattice index     =            7
     lattice parameter (alat)  =       9.4486  a.u.
     unit-cell volume          =     226.4924 (a.u.)^3
     number of atoms/cell      =            2
     number of atomic types    =            1
     number of electrons       =        28.00
     number of Kohn-Sham states=           18
     kinetic-energy cutoff     =      80.0000  Ry
     charge density cutoff     =     320.0000  Ry
     scf convergence threshold =      1.0E-06
     mixing beta               =       0.4000
     number of iterations used =            8  plain     mixing
     Exchange-correlation= PBE
                           (   1   4   3   4   0   0   0)

     celldm(1)=   9.448650  celldm(2)=   0.000000  celldm(3)=   0.537000
     celldm(4)=   0.000000  celldm(5)=   0.000000  celldm(6)=   0.000000

     crystal axes: (cart. coord. in units of alat)
               a(1) = (   0.500000  -0.500000   0.268500 )  
               a(2) = (   0.500000   0.500000   0.268500 )  
               a(3) = (  -0.500000  -0.500000   0.268500 )  

     reciprocal axes: (cart. coord. in units 2 pi/alat)
               b(1) = (  1.000000 -1.000000  0.000000 )  
               b(2) = (  0.000000  1.000000  1.862197 )  
               b(3) = ( -1.000000  0.000000  1.862197 )  


     PseudoPot. # 1 for Ge read from file:
     ./Ge.upf
     MD5 check sum: 087fa14d6c89b52166990835c3b338da
     Pseudo is Norm-conserving + core correction, Zval = 14.0
     Generated using ONCVPSP code by D. R. Hamann
     Using radial grid of 1560 points,  6 beta functions with: 
                l(1) =   0
                l(2) =   0
                l(3) =   1
                l(4) =   1
                l(5) =   2
                l(6) =   2

     atomic species   valence    mass     pseudopotential
        Ge            14.00    72.63000     Ge( 1.00)

      4 Sym. Ops. (no inversion) found



   Cartesian axes

     site n.     atom                  positions (alat units)
         1           Ge  tau(   1) = (   0.0000000   0.0000000   0.0000000  )
         2           Ge  tau(   2) = (   0.0000000   0.5000000   0.1375000  )

     number of k points=   494  Gaussian smearing, width (Ry)=  0.0100

     Number of k-points >= 100: set verbosity='high' to print them.

     Dense  grid:    21887 G-vectors     FFT dimensions: (  45,  45,  45)

     Estimated max dynamical RAM per process >      30.06 MB

     Estimated total dynamical RAM >     464.91 MB

     Initial potential from superposition of free atoms

     starting charge      27.9984, renormalised to      28.0000
     Starting wfcs are   18 randomized atomic wfcs

     total cpu time spent up to now is        6.2 secs

     Self-consistent Calculation

     iteration #  1     ecut=    80.00 Ry     beta= 0.40
     Davidson diagonalization with overlap
     ethr =  1.00E-02,  avg # of iterations =  3.4

     Threshold (ethr) on eigenvalues was too large:
     Diagonalizing with lowered threshold

     Davidson diagonalization with overlap
     ethr =  3.19E-05,  avg # of iterations =  5.5

     total cpu time spent up to now is       48.4 secs

     total energy              =    -357.23779426 Ry
     estimated scf accuracy    <       0.00921050 Ry

     iteration #  2     ecut=    80.00 Ry     beta= 0.40
     Davidson diagonalization with overlap
     ethr =  3.29E-05,  avg # of iterations =  1.0

     total cpu time spent up to now is       61.9 secs

     total energy              =    -357.23789281 Ry
     estimated scf accuracy    <       0.00250496 Ry

     iteration #  3     ecut=    80.00 Ry     beta= 0.40
     Davidson diagonalization with overlap
     ethr =  8.95E-06,  avg # of iterations =  2.0

     total cpu time spent up to now is       78.9 secs

     total energy              =    -357.23816151 Ry
     estimated scf accuracy    <       0.00018920 Ry

     iteration #  4     ecut=    80.00 Ry     beta= 0.40
     Davidson diagonalization with overlap
     ethr =  6.76E-07,  avg # of iterations =  2.1

     total cpu time spent up to now is       97.1 secs

     total energy              =    -357.23817953 Ry
     estimated scf accuracy    <       0.00001814 Ry

     iteration #  5     ecut=    80.00 Ry     beta= 0.40
     Davidson diagonalization with overlap
     ethr =  6.48E-08,  avg # of iterations =  2.0

     total cpu time spent up to now is      114.0 secs

     End of self-consistent calculation

     Number of k-points >= 100: set verbosity='high' to print the bands.

     the Fermi energy is    14.1246 ev

!    total energy              =    -357.23818202 Ry
     estimated scf accuracy    <       0.00000027 Ry
     smearing contrib. (-TS)   =      -0.00044235 Ry
     internal energy E=F+TS    =    -357.23773967 Ry

     The total energy is F=E-TS. E is the sum of the following terms:
     one-electron contribution =    -124.17129055 Ry
     hartree contribution      =      85.93831312 Ry
     xc contribution           =     -87.42761286 Ry
     ewald contribution        =    -231.57714938 Ry

     convergence has been achieved in   5 iterations

     Forces acting on atoms (cartesian axes, Ry/au):

     atom    1 type  1   force =     0.00000000    0.00000000    0.00046392
     atom    2 type  1   force =     0.00000000    0.00000000   -0.00046392
     The non-local contrib.  to forces
     atom    1 type  1   force =    -0.00000000    0.00000000    0.00030262
     atom    2 type  1   force =     0.00000000    0.00000000   -0.00030676
     The ionic contribution  to forces
     atom    1 type  1   force =     0.00000000    0.00000000    0.00069927
     atom    2 type  1   force =     0.00000000    0.00000000   -0.00069927
     The local contribution  to forces
     atom    1 type  1   force =     0.00000000    0.00000000   -0.00048576
     atom    2 type  1   force =     0.00000000    0.00000000    0.00048335
     The core correction contribution to forces
     atom    1 type  1   force =     0.00000000    0.00000000   -0.00005112
     atom    2 type  1   force =    -0.00000000   -0.00000000    0.00005087
     The Hubbard contrib.    to forces
     atom    1 type  1   force =     0.00000000    0.00000000    0.00000000
     atom    2 type  1   force =     0.00000000    0.00000000    0.00000000
     The SCF correction term to forces
     atom    1 type  1   force =     0.00000000   -0.00000000   -0.00000229
     atom    2 type  1   force =     0.00000000   -0.00000000    0.00000669

     Total force =     0.000656     Total SCF correction =     0.000007


     Computing stress (Cartesian axis) and pressure

          total   stress  (Ry/bohr**3)                   (kbar)     P=      129.86
   0.00084398   0.00000000   0.00000000          124.15        0.00        0.00
   0.00000000   0.00081138  -0.00000000            0.00      119.36       -0.00
   0.00000000  -0.00000000   0.00099286            0.00       -0.00      146.06


     Writing all to output data dir ./Ge_out/Ge_scf.save/

     init_run     :      5.49s CPU      5.80s WALL (       1 calls)
     electrons    :    101.76s CPU    107.89s WALL (       1 calls)
     forces       :      0.69s CPU      0.72s WALL (       1 calls)
     stress       :      6.52s CPU      6.63s WALL (       1 calls)

     Called by init_run:
     wfcinit      :      5.08s CPU      5.35s WALL (       1 calls)
     potinit      :      0.12s CPU      0.13s WALL (       1 calls)
     hinit0       :      0.22s CPU      0.23s WALL (       1 calls)

     Called by electrons:
     c_bands      :     87.71s CPU     93.09s WALL (       6 calls)
     sum_band     :     13.88s CPU     14.58s WALL (       6 calls)
     v_of_rho     :      0.18s CPU      0.21s WALL (       6 calls)
     mix_rho      :      0.01s CPU      0.02s WALL (       6 calls)

     Called by c_bands:
     init_us_2    :      1.14s CPU      1.20s WALL (    1860 calls)
     init_us_2:cp :      1.13s CPU      1.19s WALL (    1860 calls)
     cegterg      :     81.69s CPU     86.14s WALL (     744 calls)

     Called by *egterg:
     cdiaghg      :      2.72s CPU      2.78s WALL (    2656 calls)
     h_psi        :     77.63s CPU     82.12s WALL (    2904 calls)
     g_psi        :      0.29s CPU      0.30s WALL (    2036 calls)

     Called by h_psi:
     h_psi:calbec :      1.69s CPU      1.81s WALL (    2904 calls)
     vloc_psi     :     74.15s CPU     78.45s WALL (    2904 calls)
     add_vuspsi   :      1.52s CPU      1.57s WALL (    2904 calls)

     General routines
     calbec       :      2.09s CPU      2.24s WALL (    3524 calls)
     fft          :      0.20s CPU      0.22s WALL (      85 calls)
     ffts         :      0.01s CPU      0.01s WALL (       6 calls)
     fftw         :     79.17s CPU     83.68s WALL (   90026 calls)

     Parallel routines

     PWSCF        :   1m54.99s CPU   2m 2.84s WALL


   This run was terminated on:   8:30:21  27Apr2025            

=------------------------------------------------------------------------------=
   JOB DONE.
=------------------------------------------------------------------------------=
