
     Program PWSCF v.7.2 starts on 26Apr2025 at 19:33: 2 

     This program is part of the open-source Quantum ESPRESSO suite
     for quantum simulation of materials; please cite
         "P. Giannozzi et al., J. Phys.:Condens. Matter 21 395502 (2009);
         "P. Giannozzi et al., J. Phys.:Condens. Matter 29 465901 (2017);
         "P. Giannozzi et al., J. Chem. Phys. 152 154105 (2020);
          URL http://www.quantum-espresso.org", 
     in publications or presentations arising from this work. More details at
     http://www.quantum-espresso.org/quote

     Parallel version (MPI), running on    16 processors

     MPI processes distributed on     1 nodes
     200738 MiB available memory on the printing compute node when the environment starts

     Waiting for input...
     Reading input from standard input
Warning: card &CELL ignored
Warning: card / ignored

     Current dimensions of program PWSCF are:
     Max number of different atomic species (ntypx) = 10
     Max number of k-points (npk) =  40000
     Max angular momentum in pseudopotentials (lmaxx) =  4

     K-points division:     npool     =       4
     R & G space division:  proc/nbgrp/npool/nimage =       4
     Subspace diagonalization in iterative solution of the eigenvalue problem:
     a serial algorithm will be used


     Parallelization info
     --------------------
     sticks:   dense  smooth     PW     G-vecs:    dense   smooth      PW
     Min         364     364    121                 6535     6535    1268
     Max         365     365    122                 6536     6536    1270
     Sum        1457    1457    487                26143    26143    5077

     Using Slab Decomposition



     bravais-lattice index     =            7
     lattice parameter (alat)  =      10.0156  a.u.
     unit-cell volume          =     269.7560 (a.u.)^3
     number of atoms/cell      =            2
     number of atomic types    =            1
     number of electrons       =        28.00
     number of Kohn-Sham states=           18
     kinetic-energy cutoff     =      80.0000  Ry
     charge density cutoff     =     320.0000  Ry
     scf convergence threshold =      1.0E-06
     mixing beta               =       0.4000
     number of iterations used =            8  plain     mixing
     Exchange-correlation= PBE
                           (   1   4   3   4   0   0   0)

     celldm(1)=  10.015569  celldm(2)=   0.000000  celldm(3)=   0.537000
     celldm(4)=   0.000000  celldm(5)=   0.000000  celldm(6)=   0.000000

     crystal axes: (cart. coord. in units of alat)
               a(1) = (   0.500000  -0.500000   0.268500 )  
               a(2) = (   0.500000   0.500000   0.268500 )  
               a(3) = (  -0.500000  -0.500000   0.268500 )  

     reciprocal axes: (cart. coord. in units 2 pi/alat)
               b(1) = (  1.000000 -1.000000  0.000000 )  
               b(2) = (  0.000000  1.000000  1.862197 )  
               b(3) = ( -1.000000  0.000000  1.862197 )  


     PseudoPot. # 1 for Ge read from file:
     ./Ge.upf
     MD5 check sum: 087fa14d6c89b52166990835c3b338da
     Pseudo is Norm-conserving + core correction, Zval = 14.0
     Generated using ONCVPSP code by D. R. Hamann
     Using radial grid of 1560 points,  6 beta functions with: 
                l(1) =   0
                l(2) =   0
                l(3) =   1
                l(4) =   1
                l(5) =   2
                l(6) =   2

     atomic species   valence    mass     pseudopotential
        Ge            14.00    72.63000     Ge( 1.00)

      4 Sym. Ops. (no inversion) found



   Cartesian axes

     site n.     atom                  positions (alat units)
         1           Ge  tau(   1) = (   0.0000000   0.0000000   0.0000000  )
         2           Ge  tau(   2) = (   0.0000000   0.5000000   0.1375000  )

     number of k points=   494  Gaussian smearing, width (Ry)=  0.0100

     Number of k-points >= 100: set verbosity='high' to print them.

     Dense  grid:    26143 G-vectors     FFT dimensions: (  45,  45,  45)

     Estimated max dynamical RAM per process >      35.21 MB

     Estimated total dynamical RAM >     544.29 MB

     Initial potential from superposition of free atoms

     starting charge      27.9984, renormalised to      28.0000
     Starting wfcs are   18 randomized atomic wfcs

     total cpu time spent up to now is        6.3 secs

     Self-consistent Calculation

     iteration #  1     ecut=    80.00 Ry     beta= 0.40
     Davidson diagonalization with overlap
     ethr =  1.00E-02,  avg # of iterations =  3.2

     Threshold (ethr) on eigenvalues was too large:
     Diagonalizing with lowered threshold

     Davidson diagonalization with overlap
     ethr =  2.46E-05,  avg # of iterations =  5.4

     total cpu time spent up to now is       49.3 secs

     total energy              =    -357.25070095 Ry
     estimated scf accuracy    <       0.00705328 Ry

     iteration #  2     ecut=    80.00 Ry     beta= 0.40
     Davidson diagonalization with overlap
     ethr =  2.52E-05,  avg # of iterations =  1.0

     total cpu time spent up to now is       63.2 secs

     total energy              =    -357.25084326 Ry
     estimated scf accuracy    <       0.00193466 Ry

     iteration #  3     ecut=    80.00 Ry     beta= 0.40
     Davidson diagonalization with overlap
     ethr =  6.91E-06,  avg # of iterations =  2.1

     total cpu time spent up to now is       81.3 secs

     total energy              =    -357.25105720 Ry
     estimated scf accuracy    <       0.00014268 Ry

     iteration #  4     ecut=    80.00 Ry     beta= 0.40
     Davidson diagonalization with overlap
     ethr =  5.10E-07,  avg # of iterations =  2.1

     total cpu time spent up to now is       99.3 secs

     total energy              =    -357.25107067 Ry
     estimated scf accuracy    <       0.00001301 Ry

     iteration #  5     ecut=    80.00 Ry     beta= 0.40
     Davidson diagonalization with overlap
     ethr =  4.65E-08,  avg # of iterations =  2.0

     total cpu time spent up to now is      117.2 secs

     End of self-consistent calculation

     Number of k-points >= 100: set verbosity='high' to print the bands.

     the Fermi energy is    11.1283 ev

!    total energy              =    -357.25107248 Ry
     estimated scf accuracy    <       0.00000026 Ry
     smearing contrib. (-TS)   =      -0.00067412 Ry
     internal energy E=F+TS    =    -357.25039836 Ry

     The total energy is F=E-TS. E is the sum of the following terms:
     one-electron contribution =    -144.99914777 Ry
     hartree contribution      =      93.43798925 Ry
     xc contribution           =     -87.22023100 Ry
     ewald contribution        =    -218.46900885 Ry

     convergence has been achieved in   5 iterations

     Forces acting on atoms (cartesian axes, Ry/au):

     atom    1 type  1   force =     0.00000000    0.00000000    0.00034047
     atom    2 type  1   force =     0.00000000    0.00000000   -0.00034047
     The non-local contrib.  to forces
     atom    1 type  1   force =     0.00000000    0.00000000    0.00085132
     atom    2 type  1   force =    -0.00000000    0.00000000   -0.00085350
     The ionic contribution  to forces
     atom    1 type  1   force =    -0.00000000   -0.00000000    0.00062234
     atom    2 type  1   force =     0.00000000    0.00000000   -0.00062234
     The local contribution  to forces
     atom    1 type  1   force =     0.00000000    0.00000000   -0.00109439
     atom    2 type  1   force =     0.00000000    0.00000000    0.00109067
     The core correction contribution to forces
     atom    1 type  1   force =     0.00000000    0.00000000   -0.00002283
     atom    2 type  1   force =    -0.00000000   -0.00000000    0.00002271
     The Hubbard contrib.    to forces
     atom    1 type  1   force =     0.00000000    0.00000000    0.00000000
     atom    2 type  1   force =     0.00000000    0.00000000    0.00000000
     The SCF correction term to forces
     atom    1 type  1   force =     0.00000000   -0.00000000   -0.00001635
     atom    2 type  1   force =     0.00000000    0.00000000    0.00002162

     Total force =     0.000481     Total SCF correction =     0.000027


     Computing stress (Cartesian axis) and pressure

          total   stress  (Ry/bohr**3)                   (kbar)     P=      -23.91
  -0.00019571  -0.00000000   0.00000000          -28.79       -0.00        0.00
  -0.00000000  -0.00021531  -0.00000000           -0.00      -31.67       -0.00
  -0.00000000   0.00000000  -0.00007665           -0.00        0.00      -11.28


     Writing all to output data dir ./Ge_out/Ge_scf.save/

     init_run     :      5.74s CPU      6.09s WALL (       1 calls)
     electrons    :    104.37s CPU    110.88s WALL (       1 calls)
     forces       :      0.81s CPU      0.89s WALL (       1 calls)
     stress       :      7.86s CPU      7.97s WALL (       1 calls)

     Called by init_run:
     wfcinit      :      5.27s CPU      5.60s WALL (       1 calls)
     potinit      :      0.11s CPU      0.12s WALL (       1 calls)
     hinit0       :      0.26s CPU      0.27s WALL (       1 calls)

     Called by electrons:
     c_bands      :     90.22s CPU     95.83s WALL (       6 calls)
     sum_band     :     13.97s CPU     14.80s WALL (       6 calls)
     v_of_rho     :      0.18s CPU      0.21s WALL (       6 calls)
     mix_rho      :      0.01s CPU      0.02s WALL (       6 calls)

     Called by c_bands:
     init_us_2    :      1.35s CPU      1.43s WALL (    1860 calls)
     init_us_2:cp :      1.34s CPU      1.42s WALL (    1860 calls)
     cegterg      :     83.82s CPU     88.68s WALL (     744 calls)

     Called by *egterg:
     cdiaghg      :      2.69s CPU      2.74s WALL (    2654 calls)
     h_psi        :     78.80s CPU     83.74s WALL (    2902 calls)
     g_psi        :      0.35s CPU      0.35s WALL (    2034 calls)

     Called by h_psi:
     h_psi:calbec :      2.13s CPU      2.27s WALL (    2902 calls)
     vloc_psi     :     74.57s CPU     79.30s WALL (    2902 calls)
     add_vuspsi   :      1.76s CPU      1.82s WALL (    2902 calls)

     General routines
     calbec       :      2.67s CPU      2.83s WALL (    3522 calls)
     fft          :      0.20s CPU      0.22s WALL (      85 calls)
     ffts         :      0.01s CPU      0.01s WALL (       6 calls)
     fftw         :     79.62s CPU     84.67s WALL (   89474 calls)

     Parallel routines

     PWSCF        :   1m59.19s CPU   2m 7.53s WALL


   This run was terminated on:  19:35: 9  26Apr2025            

=------------------------------------------------------------------------------=
   JOB DONE.
=------------------------------------------------------------------------------=
