
     Program PWSCF v.7.2 starts on 26Apr2025 at 19:35:10 

     This program is part of the open-source Quantum ESPRESSO suite
     for quantum simulation of materials; please cite
         "P. Giannozzi et al., J. Phys.:Condens. Matter 21 395502 (2009);
         "P. Giannozzi et al., J. Phys.:Condens. Matter 29 465901 (2017);
         "P. Giannozzi et al., J. Chem. Phys. 152 154105 (2020);
          URL http://www.quantum-espresso.org", 
     in publications or presentations arising from this work. More details at
     http://www.quantum-espresso.org/quote

     Parallel version (MPI), running on    16 processors

     MPI processes distributed on     1 nodes
     200751 MiB available memory on the printing compute node when the environment starts

     Waiting for input...
     Reading input from standard input
Warning: card &CELL ignored
Warning: card / ignored

     Current dimensions of program PWSCF are:
     Max number of different atomic species (ntypx) = 10
     Max number of k-points (npk) =  40000
     Max angular momentum in pseudopotentials (lmaxx) =  4

     K-points division:     npool     =       4
     R & G space division:  proc/nbgrp/npool/nimage =       4
     Subspace diagonalization in iterative solution of the eigenvalue problem:
     a serial algorithm will be used


     Parallelization info
     --------------------
     sticks:   dense  smooth     PW     G-vecs:    dense   smooth      PW
     Min         372     372    123                 6863     6863    1317
     Max         374     374    124                 6864     6864    1320
     Sum        1493    1493    495                27455    27455    5277

     Using Slab Decomposition



     bravais-lattice index     =            7
     lattice parameter (alat)  =      10.2045  a.u.
     unit-cell volume          =     285.3152 (a.u.)^3
     number of atoms/cell      =            2
     number of atomic types    =            1
     number of electrons       =        28.00
     number of Kohn-Sham states=           18
     kinetic-energy cutoff     =      80.0000  Ry
     charge density cutoff     =     320.0000  Ry
     scf convergence threshold =      1.0E-06
     mixing beta               =       0.4000
     number of iterations used =            8  plain     mixing
     Exchange-correlation= PBE
                           (   1   4   3   4   0   0   0)

     celldm(1)=  10.204542  celldm(2)=   0.000000  celldm(3)=   0.537000
     celldm(4)=   0.000000  celldm(5)=   0.000000  celldm(6)=   0.000000

     crystal axes: (cart. coord. in units of alat)
               a(1) = (   0.500000  -0.500000   0.268500 )  
               a(2) = (   0.500000   0.500000   0.268500 )  
               a(3) = (  -0.500000  -0.500000   0.268500 )  

     reciprocal axes: (cart. coord. in units 2 pi/alat)
               b(1) = (  1.000000 -1.000000  0.000000 )  
               b(2) = (  0.000000  1.000000  1.862197 )  
               b(3) = ( -1.000000  0.000000  1.862197 )  


     PseudoPot. # 1 for Ge read from file:
     ./Ge.upf
     MD5 check sum: 087fa14d6c89b52166990835c3b338da
     Pseudo is Norm-conserving + core correction, Zval = 14.0
     Generated using ONCVPSP code by D. R. Hamann
     Using radial grid of 1560 points,  6 beta functions with: 
                l(1) =   0
                l(2) =   0
                l(3) =   1
                l(4) =   1
                l(5) =   2
                l(6) =   2

     atomic species   valence    mass     pseudopotential
        Ge            14.00    72.63000     Ge( 1.00)

      4 Sym. Ops. (no inversion) found



   Cartesian axes

     site n.     atom                  positions (alat units)
         1           Ge  tau(   1) = (   0.0000000   0.0000000   0.0000000  )
         2           Ge  tau(   2) = (   0.0000000   0.5000000   0.1375000  )

     number of k points=   494  Gaussian smearing, width (Ry)=  0.0100

     Number of k-points >= 100: set verbosity='high' to print them.

     Dense  grid:    27455 G-vectors     FFT dimensions: (  45,  45,  45)

     Estimated max dynamical RAM per process >      37.04 MB

     Estimated total dynamical RAM >     572.57 MB

     Initial potential from superposition of free atoms

     starting charge      27.9984, renormalised to      28.0000
     Starting wfcs are   18 randomized atomic wfcs

     total cpu time spent up to now is        6.5 secs

     Self-consistent Calculation

     iteration #  1     ecut=    80.00 Ry     beta= 0.40
     Davidson diagonalization with overlap
     ethr =  1.00E-02,  avg # of iterations =  3.0

     Threshold (ethr) on eigenvalues was too large:
     Diagonalizing with lowered threshold

     Davidson diagonalization with overlap
     ethr =  2.28E-05,  avg # of iterations =  5.4

     total cpu time spent up to now is       50.6 secs

     total energy              =    -357.24691358 Ry
     estimated scf accuracy    <       0.00655190 Ry

     iteration #  2     ecut=    80.00 Ry     beta= 0.40
     Davidson diagonalization with overlap
     ethr =  2.34E-05,  avg # of iterations =  1.0

     total cpu time spent up to now is       64.8 secs

     total energy              =    -357.24705842 Ry
     estimated scf accuracy    <       0.00179375 Ry

     iteration #  3     ecut=    80.00 Ry     beta= 0.40
     Davidson diagonalization with overlap
     ethr =  6.41E-06,  avg # of iterations =  2.1

     total cpu time spent up to now is       82.1 secs

     total energy              =    -357.24725874 Ry
     estimated scf accuracy    <       0.00012913 Ry

     iteration #  4     ecut=    80.00 Ry     beta= 0.40
     Davidson diagonalization with overlap
     ethr =  4.61E-07,  avg # of iterations =  2.1

     total cpu time spent up to now is      100.6 secs

     total energy              =    -357.24727279 Ry
     estimated scf accuracy    <       0.00001226 Ry

     iteration #  5     ecut=    80.00 Ry     beta= 0.40
     Davidson diagonalization with overlap
     ethr =  4.38E-08,  avg # of iterations =  2.0

     total cpu time spent up to now is      119.3 secs

     End of self-consistent calculation

     Number of k-points >= 100: set verbosity='high' to print the bands.

     the Fermi energy is    10.2774 ev

!    total energy              =    -357.24727483 Ry
     estimated scf accuracy    <       0.00000016 Ry
     smearing contrib. (-TS)   =      -0.00071097 Ry
     internal energy E=F+TS    =    -357.24656385 Ry

     The total energy is F=E-TS. E is the sum of the following terms:
     one-electron contribution =    -151.50251622 Ry
     hartree contribution      =      95.84114919 Ry
     xc contribution           =     -87.16191036 Ry
     ewald contribution        =    -214.42328646 Ry

     convergence has been achieved in   5 iterations

     Forces acting on atoms (cartesian axes, Ry/au):

     atom    1 type  1   force =     0.00000000    0.00000000    0.00029523
     atom    2 type  1   force =     0.00000000    0.00000000   -0.00029523
     The non-local contrib.  to forces
     atom    1 type  1   force =     0.00000000    0.00000000    0.00090108
     atom    2 type  1   force =    -0.00000000    0.00000000   -0.00090835
     The ionic contribution  to forces
     atom    1 type  1   force =     0.00000000   -0.00000000    0.00059951
     atom    2 type  1   force =     0.00000000    0.00000000   -0.00059951
     The local contribution  to forces
     atom    1 type  1   force =     0.00000000    0.00000000   -0.00119517
     atom    2 type  1   force =     0.00000000    0.00000000    0.00118166
     The core correction contribution to forces
     atom    1 type  1   force =     0.00000000    0.00000000   -0.00001712
     atom    2 type  1   force =    -0.00000000   -0.00000000    0.00001599
     The Hubbard contrib.    to forces
     atom    1 type  1   force =     0.00000000    0.00000000    0.00000000
     atom    2 type  1   force =     0.00000000    0.00000000    0.00000000
     The SCF correction term to forces
     atom    1 type  1   force =    -0.00000000   -0.00000000    0.00000429
     atom    2 type  1   force =    -0.00000000    0.00000000    0.00001232

     Total force =     0.000418     Total SCF correction =     0.000013


     Computing stress (Cartesian axis) and pressure

          total   stress  (Ry/bohr**3)                   (kbar)     P=      -51.03
  -0.00037583   0.00000000  -0.00000000          -55.29        0.00       -0.00
   0.00000000  -0.00039059   0.00000000            0.00      -57.46        0.00
  -0.00000000   0.00000000  -0.00027425           -0.00        0.00      -40.34


     Writing all to output data dir ./Ge_out/Ge_scf.save/

     init_run     :      5.85s CPU      6.23s WALL (       1 calls)
     electrons    :    106.00s CPU    112.89s WALL (       1 calls)
     forces       :      0.85s CPU      0.92s WALL (       1 calls)
     stress       :      8.31s CPU      8.42s WALL (       1 calls)

     Called by init_run:
     wfcinit      :      5.38s CPU      5.73s WALL (       1 calls)
     potinit      :      0.12s CPU      0.13s WALL (       1 calls)
     hinit0       :      0.24s CPU      0.25s WALL (       1 calls)

     Called by electrons:
     c_bands      :     91.79s CPU     97.69s WALL (       6 calls)
     sum_band     :     14.02s CPU     14.94s WALL (       6 calls)
     v_of_rho     :      0.20s CPU      0.21s WALL (       6 calls)
     mix_rho      :      0.01s CPU      0.02s WALL (       6 calls)

     Called by c_bands:
     init_us_2    :      1.41s CPU      1.52s WALL (    1860 calls)
     init_us_2:cp :      1.40s CPU      1.51s WALL (    1860 calls)
     cegterg      :     85.26s CPU     90.32s WALL (     744 calls)

     Called by *egterg:
     cdiaghg      :      2.73s CPU      2.79s WALL (    2640 calls)
     h_psi        :     80.07s CPU     85.19s WALL (    2888 calls)
     g_psi        :      0.35s CPU      0.36s WALL (    2020 calls)

     Called by h_psi:
     h_psi:calbec :      2.19s CPU      2.36s WALL (    2888 calls)
     vloc_psi     :     75.61s CPU     80.48s WALL (    2888 calls)
     add_vuspsi   :      1.90s CPU      1.97s WALL (    2888 calls)

     General routines
     calbec       :      2.71s CPU      2.91s WALL (    3508 calls)
     fft          :      0.21s CPU      0.22s WALL (      85 calls)
     ffts         :      0.01s CPU      0.01s WALL (       6 calls)
     fftw         :     80.61s CPU     85.82s WALL (   89128 calls)

     Parallel routines

     PWSCF        :   2m 1.45s CPU   2m10.32s WALL


   This run was terminated on:  19:37:21  26Apr2025            

=------------------------------------------------------------------------------=
   JOB DONE.
=------------------------------------------------------------------------------=
