
     Program PWSCF v.7.2 starts on 26Apr2025 at 19:39:34 

     This program is part of the open-source Quantum ESPRESSO suite
     for quantum simulation of materials; please cite
         "P. Giannozzi et al., J. Phys.:Condens. Matter 21 395502 (2009);
         "P. Giannozzi et al., J. Phys.:Condens. Matter 29 465901 (2017);
         "P. Giannozzi et al., J. Chem. Phys. 152 154105 (2020);
          URL http://www.quantum-espresso.org", 
     in publications or presentations arising from this work. More details at
     http://www.quantum-espresso.org/quote

     Parallel version (MPI), running on    16 processors

     MPI processes distributed on     1 nodes
     200738 MiB available memory on the printing compute node when the environment starts

     Waiting for input...
     Reading input from standard input
Warning: card &CELL ignored
Warning: card / ignored

     Current dimensions of program PWSCF are:
     Max number of different atomic species (ntypx) = 10
     Max number of k-points (npk) =  40000
     Max angular momentum in pseudopotentials (lmaxx) =  4

     K-points division:     npool     =       4
     R & G space division:  proc/nbgrp/npool/nimage =       4
     Subspace diagonalization in iterative solution of the eigenvalue problem:
     a serial algorithm will be used


     Parallelization info
     --------------------
     sticks:   dense  smooth     PW     G-vecs:    dense   smooth      PW
     Min         405     405    132                 7698     7698    1458
     Max         406     406    133                 7699     7699    1459
     Sum        1621    1621    531                30793    30793    5833

     Using Slab Decomposition



     bravais-lattice index     =            7
     lattice parameter (alat)  =      10.5825  a.u.
     unit-cell volume          =     318.2055 (a.u.)^3
     number of atoms/cell      =            2
     number of atomic types    =            1
     number of electrons       =        28.00
     number of Kohn-Sham states=           18
     kinetic-energy cutoff     =      80.0000  Ry
     charge density cutoff     =     320.0000  Ry
     scf convergence threshold =      1.0E-06
     mixing beta               =       0.4000
     number of iterations used =            8  plain     mixing
     Exchange-correlation= PBE
                           (   1   4   3   4   0   0   0)

     celldm(1)=  10.582488  celldm(2)=   0.000000  celldm(3)=   0.537000
     celldm(4)=   0.000000  celldm(5)=   0.000000  celldm(6)=   0.000000

     crystal axes: (cart. coord. in units of alat)
               a(1) = (   0.500000  -0.500000   0.268500 )  
               a(2) = (   0.500000   0.500000   0.268500 )  
               a(3) = (  -0.500000  -0.500000   0.268500 )  

     reciprocal axes: (cart. coord. in units 2 pi/alat)
               b(1) = (  1.000000 -1.000000  0.000000 )  
               b(2) = (  0.000000  1.000000  1.862197 )  
               b(3) = ( -1.000000  0.000000  1.862197 )  


     PseudoPot. # 1 for Ge read from file:
     ./Ge.upf
     MD5 check sum: 087fa14d6c89b52166990835c3b338da
     Pseudo is Norm-conserving + core correction, Zval = 14.0
     Generated using ONCVPSP code by D. R. Hamann
     Using radial grid of 1560 points,  6 beta functions with: 
                l(1) =   0
                l(2) =   0
                l(3) =   1
                l(4) =   1
                l(5) =   2
                l(6) =   2

     atomic species   valence    mass     pseudopotential
        Ge            14.00    72.63000     Ge( 1.00)

      4 Sym. Ops. (no inversion) found



   Cartesian axes

     site n.     atom                  positions (alat units)
         1           Ge  tau(   1) = (   0.0000000   0.0000000   0.0000000  )
         2           Ge  tau(   2) = (   0.0000000   0.5000000   0.1375000  )

     number of k points=   494  Gaussian smearing, width (Ry)=  0.0100

     Number of k-points >= 100: set verbosity='high' to print them.

     Dense  grid:    30793 G-vectors     FFT dimensions: (  45,  45,  45)

     Estimated max dynamical RAM per process >      40.95 MB

     Estimated total dynamical RAM >     632.67 MB

     Initial potential from superposition of free atoms

     starting charge      27.9984, renormalised to      28.0000
     Starting wfcs are   18 randomized atomic wfcs

     total cpu time spent up to now is        6.8 secs

     Self-consistent Calculation

     iteration #  1     ecut=    80.00 Ry     beta= 0.40
     Davidson diagonalization with overlap
     ethr =  1.00E-02,  avg # of iterations =  2.6

     Threshold (ethr) on eigenvalues was too large:
     Diagonalizing with lowered threshold

     Davidson diagonalization with overlap
     ethr =  2.05E-05,  avg # of iterations =  5.4

     total cpu time spent up to now is       51.4 secs

     total energy              =    -357.23138875 Ry
     estimated scf accuracy    <       0.00587397 Ry

     iteration #  2     ecut=    80.00 Ry     beta= 0.40
     Davidson diagonalization with overlap
     ethr =  2.10E-05,  avg # of iterations =  1.0

     total cpu time spent up to now is       66.0 secs

     total energy              =    -357.23152471 Ry
     estimated scf accuracy    <       0.00159038 Ry

     iteration #  3     ecut=    80.00 Ry     beta= 0.40
     Davidson diagonalization with overlap
     ethr =  5.68E-06,  avg # of iterations =  2.1

     total cpu time spent up to now is       82.8 secs

     total energy              =    -357.23171088 Ry
     estimated scf accuracy    <       0.00010802 Ry

     iteration #  4     ecut=    80.00 Ry     beta= 0.40
     Davidson diagonalization with overlap
     ethr =  3.86E-07,  avg # of iterations =  2.1

     total cpu time spent up to now is      107.3 secs

     total energy              =    -357.23172360 Ry
     estimated scf accuracy    <       0.00000922 Ry

     iteration #  5     ecut=    80.00 Ry     beta= 0.40
     Davidson diagonalization with overlap
     ethr =  3.29E-08,  avg # of iterations =  2.0

     total cpu time spent up to now is      126.9 secs

     End of self-consistent calculation

     Number of k-points >= 100: set verbosity='high' to print the bands.

     the Fermi energy is     8.7530 ev

!    total energy              =    -357.23172554 Ry
     estimated scf accuracy    <       0.00000021 Ry
     smearing contrib. (-TS)   =      -0.00074020 Ry
     internal energy E=F+TS    =    -357.23098534 Ry

     The total energy is F=E-TS. E is the sum of the following terms:
     one-electron contribution =    -163.90451042 Ry
     hartree contribution      =     100.49665390 Ry
     xc contribution           =     -87.05781687 Ry
     ewald contribution        =    -206.76531194 Ry

     convergence has been achieved in   5 iterations

     Forces acting on atoms (cartesian axes, Ry/au):

     atom    1 type  1   force =     0.00000000   -0.00000000    0.00021598
     atom    2 type  1   force =     0.00000000    0.00000000   -0.00021598
     The non-local contrib.  to forces
     atom    1 type  1   force =    -0.00000000    0.00000000    0.00093303
     atom    2 type  1   force =    -0.00000000    0.00000000   -0.00093663
     The ionic contribution  to forces
     atom    1 type  1   force =     0.00000000   -0.00000000    0.00055745
     atom    2 type  1   force =     0.00000000    0.00000000   -0.00055745
     The local contribution  to forces
     atom    1 type  1   force =     0.00000000   -0.00000000   -0.00127689
     atom    2 type  1   force =     0.00000000    0.00000000    0.00125853
     The core correction contribution to forces
     atom    1 type  1   force =     0.00000000    0.00000000   -0.00000687
     atom    2 type  1   force =    -0.00000000   -0.00000000    0.00000523
     The Hubbard contrib.    to forces
     atom    1 type  1   force =     0.00000000    0.00000000    0.00000000
     atom    2 type  1   force =     0.00000000    0.00000000    0.00000000
     The SCF correction term to forces
     atom    1 type  1   force =    -0.00000000   -0.00000000    0.00000799
     atom    2 type  1   force =    -0.00000000   -0.00000000    0.00001306

     Total force =     0.000305     Total SCF correction =     0.000015


     Computing stress (Cartesian axis) and pressure

          total   stress  (Ry/bohr**3)                   (kbar)     P=      -85.98
  -0.00060773  -0.00000000   0.00000000          -89.40       -0.00        0.00
  -0.00000000  -0.00061459   0.00000000           -0.00      -90.41        0.00
   0.00000000   0.00000000  -0.00053111            0.00        0.00      -78.13


     Writing all to output data dir ./Ge_out/Ge_scf.save/

     init_run     :      6.04s CPU      6.43s WALL (       1 calls)
     electrons    :    107.68s CPU    120.12s WALL (       1 calls)
     forces       :      0.96s CPU      1.04s WALL (       1 calls)
     stress       :      9.37s CPU      9.49s WALL (       1 calls)

     Called by init_run:
     wfcinit      :      5.51s CPU      5.87s WALL (       1 calls)
     potinit      :      0.12s CPU      0.13s WALL (       1 calls)
     hinit0       :      0.27s CPU      0.28s WALL (       1 calls)

     Called by electrons:
     c_bands      :     93.39s CPU    104.79s WALL (       6 calls)
     sum_band     :     14.09s CPU     15.07s WALL (       6 calls)
     v_of_rho     :      0.19s CPU      0.20s WALL (       6 calls)
     mix_rho      :      0.02s CPU      0.02s WALL (       6 calls)

     Called by c_bands:
     init_us_2    :      1.64s CPU      1.72s WALL (    1860 calls)
     init_us_2:cp :      1.63s CPU      1.71s WALL (    1860 calls)
     cegterg      :     86.36s CPU     91.68s WALL (     744 calls)

     Called by *egterg:
     cdiaghg      :      2.64s CPU      2.69s WALL (    2568 calls)
     h_psi        :     80.45s CPU     85.86s WALL (    2816 calls)
     g_psi        :      0.40s CPU      0.40s WALL (    1948 calls)

     Called by h_psi:
     h_psi:calbec :      2.37s CPU      2.53s WALL (    2816 calls)
     vloc_psi     :     75.57s CPU     80.76s WALL (    2816 calls)
     add_vuspsi   :      2.15s CPU      2.20s WALL (    2816 calls)

     General routines
     calbec       :      2.95s CPU      3.13s WALL (    3436 calls)
     fft          :      0.21s CPU      0.22s WALL (      85 calls)
     ffts         :      0.01s CPU      0.01s WALL (       6 calls)
     fftw         :     80.38s CPU     85.95s WALL (   88856 calls)

     Parallel routines

     PWSCF        :   2m 4.60s CPU   2m34.60s WALL


   This run was terminated on:  19:42: 9  26Apr2025            

=------------------------------------------------------------------------------=
   JOB DONE.
=------------------------------------------------------------------------------=
