
     Program PWSCF v.7.2 starts on 27Apr2025 at  8:26:50 

     This program is part of the open-source Quantum ESPRESSO suite
     for quantum simulation of materials; please cite
         "P. Giannozzi et al., J. Phys.:Condens. Matter 21 395502 (2009);
         "P. Giannozzi et al., J. Phys.:Condens. Matter 29 465901 (2017);
         "P. Giannozzi et al., J. Chem. Phys. 152 154105 (2020);
          URL http://www.quantum-espresso.org", 
     in publications or presentations arising from this work. More details at
     http://www.quantum-espresso.org/quote

     Parallel version (MPI), running on    16 processors

     MPI processes distributed on     1 nodes
     200717 MiB available memory on the printing compute node when the environment starts

     Waiting for input...
     Reading input from standard input
Warning: card &CELL ignored
Warning: card / ignored

     Current dimensions of program PWSCF are:
     Max number of different atomic species (ntypx) = 10
     Max number of k-points (npk) =  40000
     Max angular momentum in pseudopotentials (lmaxx) =  4

     K-points division:     npool     =       4
     R & G space division:  proc/nbgrp/npool/nimage =       4
     Subspace diagonalization in iterative solution of the eigenvalue problem:
     a serial algorithm will be used


     Parallelization info
     --------------------
     sticks:   dense  smooth     PW     G-vecs:    dense   smooth      PW
     Min         298     298    102                 4853     4853     976
     Max         299     299    103                 4854     4854     978
     Sum        1193    1193    411                19413    19413    3909

     Using Slab Decomposition



     bravais-lattice index     =            7
     lattice parameter (alat)  =       9.0707  a.u.
     unit-cell volume          =     200.3860 (a.u.)^3
     number of atoms/cell      =            2
     number of atomic types    =            1
     number of electrons       =        28.00
     number of Kohn-Sham states=           18
     kinetic-energy cutoff     =      80.0000  Ry
     charge density cutoff     =     320.0000  Ry
     scf convergence threshold =      1.0E-06
     mixing beta               =       0.4000
     number of iterations used =            8  plain     mixing
     Exchange-correlation= PBE
                           (   1   4   3   4   0   0   0)

     celldm(1)=   9.070704  celldm(2)=   0.000000  celldm(3)=   0.537000
     celldm(4)=   0.000000  celldm(5)=   0.000000  celldm(6)=   0.000000

     crystal axes: (cart. coord. in units of alat)
               a(1) = (   0.500000  -0.500000   0.268500 )  
               a(2) = (   0.500000   0.500000   0.268500 )  
               a(3) = (  -0.500000  -0.500000   0.268500 )  

     reciprocal axes: (cart. coord. in units 2 pi/alat)
               b(1) = (  1.000000 -1.000000  0.000000 )  
               b(2) = (  0.000000  1.000000  1.862197 )  
               b(3) = ( -1.000000  0.000000  1.862197 )  


     PseudoPot. # 1 for Ge read from file:
     ./Ge.upf
     MD5 check sum: 087fa14d6c89b52166990835c3b338da
     Pseudo is Norm-conserving + core correction, Zval = 14.0
     Generated using ONCVPSP code by D. R. Hamann
     Using radial grid of 1560 points,  6 beta functions with: 
                l(1) =   0
                l(2) =   0
                l(3) =   1
                l(4) =   1
                l(5) =   2
                l(6) =   2

     atomic species   valence    mass     pseudopotential
        Ge            14.00    72.63000     Ge( 1.00)

      4 Sym. Ops. (no inversion) found



   Cartesian axes

     site n.     atom                  positions (alat units)
         1           Ge  tau(   1) = (   0.0000000   0.0000000   0.0000000  )
         2           Ge  tau(   2) = (   0.0000000   0.5000000   0.1375000  )

     number of k points=   494  Gaussian smearing, width (Ry)=  0.0100

     Number of k-points >= 100: set verbosity='high' to print them.

     Dense  grid:    19413 G-vectors     FFT dimensions: (  40,  40,  40)

     Estimated max dynamical RAM per process >      26.39 MB

     Estimated total dynamical RAM >     408.02 MB

     Initial potential from superposition of free atoms

     starting charge      27.9984, renormalised to      28.0000
     Starting wfcs are   18 randomized atomic wfcs

     total cpu time spent up to now is        4.4 secs

     Self-consistent Calculation

     iteration #  1     ecut=    80.00 Ry     beta= 0.40
     Davidson diagonalization with overlap
     ethr =  1.00E-02,  avg # of iterations =  3.5

     Threshold (ethr) on eigenvalues was too large:
     Diagonalizing with lowered threshold

     Davidson diagonalization with overlap
     ethr =  3.88E-05,  avg # of iterations =  5.2

     total cpu time spent up to now is       33.9 secs

     total energy              =    -357.19819487 Ry
     estimated scf accuracy    <       0.01134229 Ry

     iteration #  2     ecut=    80.00 Ry     beta= 0.40
     Davidson diagonalization with overlap
     ethr =  4.05E-05,  avg # of iterations =  1.0

     total cpu time spent up to now is       43.2 secs

     total energy              =    -357.19822747 Ry
     estimated scf accuracy    <       0.00302869 Ry

     iteration #  3     ecut=    80.00 Ry     beta= 0.40
     Davidson diagonalization with overlap
     ethr =  1.08E-05,  avg # of iterations =  2.1

     total cpu time spent up to now is       54.9 secs

     total energy              =    -357.19855770 Ry
     estimated scf accuracy    <       0.00022844 Ry

     iteration #  4     ecut=    80.00 Ry     beta= 0.40
     Davidson diagonalization with overlap
     ethr =  8.16E-07,  avg # of iterations =  2.2

     total cpu time spent up to now is       67.6 secs

     total energy              =    -357.19857911 Ry
     estimated scf accuracy    <       0.00002102 Ry

     iteration #  5     ecut=    80.00 Ry     beta= 0.40
     Davidson diagonalization with overlap
     ethr =  7.51E-08,  avg # of iterations =  2.0

     total cpu time spent up to now is       79.2 secs

     End of self-consistent calculation

     Number of k-points >= 100: set verbosity='high' to print the bands.

     the Fermi energy is    16.5343 ev

!    total energy              =    -357.19858227 Ry
     estimated scf accuracy    <       0.00000020 Ry
     smearing contrib. (-TS)   =      -0.00054318 Ry
     internal energy E=F+TS    =    -357.19803909 Ry

     The total energy is F=E-TS. E is the sum of the following terms:
     one-electron contribution =    -109.06259510 Ry
     hartree contribution      =      80.68823655 Ry
     xc contribution           =     -87.59748327 Ry
     ewald contribution        =    -241.22619727 Ry

     convergence has been achieved in   5 iterations

     Forces acting on atoms (cartesian axes, Ry/au):

     atom    1 type  1   force =     0.00000000    0.00000000    0.00048710
     atom    2 type  1   force =     0.00000000    0.00000000   -0.00048710
     The non-local contrib.  to forces
     atom    1 type  1   force =    -0.00000000    0.00000000   -0.00004154
     atom    2 type  1   force =    -0.00000000    0.00000000    0.00004734
     The ionic contribution  to forces
     atom    1 type  1   force =    -0.00000000   -0.00000000    0.00075875
     atom    2 type  1   force =     0.00000000    0.00000000   -0.00075875
     The local contribution  to forces
     atom    1 type  1   force =    -0.00000000    0.00000000   -0.00015646
     atom    2 type  1   force =    -0.00000000    0.00000000    0.00016472
     The core correction contribution to forces
     atom    1 type  1   force =    -0.00000000    0.00000000   -0.00006104
     atom    2 type  1   force =    -0.00000000   -0.00000000    0.00006145
     The Hubbard contrib.    to forces
     atom    1 type  1   force =     0.00000000    0.00000000    0.00000000
     atom    2 type  1   force =     0.00000000    0.00000000    0.00000000
     The SCF correction term to forces
     atom    1 type  1   force =     0.00000000   -0.00000000   -0.00001088
     atom    2 type  1   force =     0.00000000    0.00000000   -0.00000013

     Total force =     0.000689     Total SCF correction =     0.000011


     Computing stress (Cartesian axis) and pressure

          total   stress  (Ry/bohr**3)                   (kbar)     P=      329.37
   0.00221051   0.00000000   0.00000000          325.18        0.00        0.00
   0.00000000   0.00215935  -0.00000000            0.00      317.65       -0.00
   0.00000000  -0.00000000   0.00234711            0.00       -0.00      345.27


     Writing all to output data dir ./Ge_out/Ge_scf.save/

     init_run     :      3.93s CPU      4.20s WALL (       1 calls)
     electrons    :     69.86s CPU     74.75s WALL (       1 calls)
     forces       :      0.60s CPU      0.63s WALL (       1 calls)
     stress       :      5.84s CPU      5.92s WALL (       1 calls)

     Called by init_run:
     wfcinit      :      3.44s CPU      3.67s WALL (       1 calls)
     potinit      :      0.10s CPU      0.10s WALL (       1 calls)
     hinit0       :      0.34s CPU      0.35s WALL (       1 calls)

     Called by electrons:
     c_bands      :     60.20s CPU     64.44s WALL (       6 calls)
     sum_band     :      9.53s CPU     10.15s WALL (       6 calls)
     v_of_rho     :      0.12s CPU      0.13s WALL (       6 calls)
     mix_rho      :      0.01s CPU      0.01s WALL (       6 calls)

     Called by c_bands:
     init_us_2    :      0.93s CPU      1.02s WALL (    1860 calls)
     init_us_2:cp :      0.92s CPU      1.02s WALL (    1860 calls)
     cegterg      :     55.79s CPU     59.41s WALL (     744 calls)

     Called by *egterg:
     cdiaghg      :      2.66s CPU      2.71s WALL (    2632 calls)
     h_psi        :     50.85s CPU     54.49s WALL (    2880 calls)
     g_psi        :      0.27s CPU      0.27s WALL (    2012 calls)

     Called by h_psi:
     h_psi:calbec :      1.61s CPU      1.72s WALL (    2880 calls)
     vloc_psi     :     47.63s CPU     51.10s WALL (    2880 calls)
     add_vuspsi   :      1.35s CPU      1.40s WALL (    2880 calls)

     General routines
     calbec       :      2.00s CPU      2.14s WALL (    3500 calls)
     fft          :      0.29s CPU      0.31s WALL (      85 calls)
     ffts         :      0.01s CPU      0.01s WALL (       6 calls)
     fftw         :     50.93s CPU     54.62s WALL (   89896 calls)

     Parallel routines

     PWSCF        :   1m20.63s CPU   1m27.06s WALL


   This run was terminated on:   8:28:17  27Apr2025            

=------------------------------------------------------------------------------=
   JOB DONE.
=------------------------------------------------------------------------------=
