
     Program PWSCF v.7.2 starts on 26Apr2025 at 19:30:57 

     This program is part of the open-source Quantum ESPRESSO suite
     for quantum simulation of materials; please cite
         "P. Giannozzi et al., J. Phys.:Condens. Matter 21 395502 (2009);
         "P. Giannozzi et al., J. Phys.:Condens. Matter 29 465901 (2017);
         "P. Giannozzi et al., J. Chem. Phys. 152 154105 (2020);
          URL http://www.quantum-espresso.org", 
     in publications or presentations arising from this work. More details at
     http://www.quantum-espresso.org/quote

     Parallel version (MPI), running on    16 processors

     MPI processes distributed on     1 nodes
     200753 MiB available memory on the printing compute node when the environment starts

     Waiting for input...
     Reading input from standard input
Warning: card &CELL ignored
Warning: card / ignored

     Current dimensions of program PWSCF are:
     Max number of different atomic species (ntypx) = 10
     Max number of k-points (npk) =  40000
     Max angular momentum in pseudopotentials (lmaxx) =  4

     K-points division:     npool     =       4
     R & G space division:  proc/nbgrp/npool/nimage =       4
     Subspace diagonalization in iterative solution of the eigenvalue problem:
     a serial algorithm will be used


     Parallelization info
     --------------------
     sticks:   dense  smooth     PW     G-vecs:    dense   smooth      PW
     Min         348     348    116                 6121     6121    1200
     Max         349     349    117                 6122     6122    1202
     Sum        1393    1393    467                24487    24487    4805

     Using Slab Decomposition



     bravais-lattice index     =            7
     lattice parameter (alat)  =       9.8266  a.u.
     unit-cell volume          =     254.7731 (a.u.)^3
     number of atoms/cell      =            2
     number of atomic types    =            1
     number of electrons       =        28.00
     number of Kohn-Sham states=           18
     kinetic-energy cutoff     =      80.0000  Ry
     charge density cutoff     =     320.0000  Ry
     scf convergence threshold =      1.0E-06
     mixing beta               =       0.4000
     number of iterations used =            8  plain     mixing
     Exchange-correlation= PBE
                           (   1   4   3   4   0   0   0)

     celldm(1)=   9.826596  celldm(2)=   0.000000  celldm(3)=   0.537000
     celldm(4)=   0.000000  celldm(5)=   0.000000  celldm(6)=   0.000000

     crystal axes: (cart. coord. in units of alat)
               a(1) = (   0.500000  -0.500000   0.268500 )  
               a(2) = (   0.500000   0.500000   0.268500 )  
               a(3) = (  -0.500000  -0.500000   0.268500 )  

     reciprocal axes: (cart. coord. in units 2 pi/alat)
               b(1) = (  1.000000 -1.000000  0.000000 )  
               b(2) = (  0.000000  1.000000  1.862197 )  
               b(3) = ( -1.000000  0.000000  1.862197 )  


     PseudoPot. # 1 for Ge read from file:
     ./Ge.upf
     MD5 check sum: 087fa14d6c89b52166990835c3b338da
     Pseudo is Norm-conserving + core correction, Zval = 14.0
     Generated using ONCVPSP code by D. R. Hamann
     Using radial grid of 1560 points,  6 beta functions with: 
                l(1) =   0
                l(2) =   0
                l(3) =   1
                l(4) =   1
                l(5) =   2
                l(6) =   2

     atomic species   valence    mass     pseudopotential
        Ge            14.00    72.63000     Ge( 1.00)

      4 Sym. Ops. (no inversion) found



   Cartesian axes

     site n.     atom                  positions (alat units)
         1           Ge  tau(   1) = (   0.0000000   0.0000000   0.0000000  )
         2           Ge  tau(   2) = (   0.0000000   0.5000000   0.1375000  )

     number of k points=   494  Gaussian smearing, width (Ry)=  0.0100

     Number of k-points >= 100: set verbosity='high' to print them.

     Dense  grid:    24487 G-vectors     FFT dimensions: (  45,  45,  45)

     Estimated max dynamical RAM per process >      33.39 MB

     Estimated total dynamical RAM >     516.27 MB

     Initial potential from superposition of free atoms

     starting charge      27.9984, renormalised to      28.0000
     Starting wfcs are   18 randomized atomic wfcs

     total cpu time spent up to now is        6.1 secs

     Self-consistent Calculation

     iteration #  1     ecut=    80.00 Ry     beta= 0.40
     Davidson diagonalization with overlap
     ethr =  1.00E-02,  avg # of iterations =  3.3

     Threshold (ethr) on eigenvalues was too large:
     Diagonalizing with lowered threshold

     Davidson diagonalization with overlap
     ethr =  2.67E-05,  avg # of iterations =  5.4

     total cpu time spent up to now is       48.1 secs

     total energy              =    -357.25103355 Ry
     estimated scf accuracy    <       0.00765608 Ry

     iteration #  2     ecut=    80.00 Ry     beta= 0.40
     Davidson diagonalization with overlap
     ethr =  2.73E-05,  avg # of iterations =  1.0

     total cpu time spent up to now is       61.6 secs

     total energy              =    -357.25116717 Ry
     estimated scf accuracy    <       0.00209917 Ry

     iteration #  3     ecut=    80.00 Ry     beta= 0.40
     Davidson diagonalization with overlap
     ethr =  7.50E-06,  avg # of iterations =  2.1

     total cpu time spent up to now is       79.2 secs

     total energy              =    -357.25139701 Ry
     estimated scf accuracy    <       0.00015711 Ry

     iteration #  4     ecut=    80.00 Ry     beta= 0.40
     Davidson diagonalization with overlap
     ethr =  5.61E-07,  avg # of iterations =  2.1

     total cpu time spent up to now is       96.7 secs

     total energy              =    -357.25141096 Ry
     estimated scf accuracy    <       0.00001425 Ry

     iteration #  5     ecut=    80.00 Ry     beta= 0.40
     Davidson diagonalization with overlap
     ethr =  5.09E-08,  avg # of iterations =  2.0

     total cpu time spent up to now is      114.1 secs

     End of self-consistent calculation

     Number of k-points >= 100: set verbosity='high' to print the bands.

     the Fermi energy is    12.0466 ev

!    total energy              =    -357.25141285 Ry
     estimated scf accuracy    <       0.00000031 Ry
     smearing contrib. (-TS)   =      -0.00056752 Ry
     internal energy E=F+TS    =    -357.25084533 Ry

     The total energy is F=E-TS. E is the sum of the following terms:
     one-electron contribution =    -138.28305775 Ry
     hartree contribution      =      90.98618390 Ry
     xc contribution           =     -87.28363554 Ry
     ewald contribution        =    -222.67033594 Ry

     convergence has been achieved in   5 iterations

     Forces acting on atoms (cartesian axes, Ry/au):

     atom    1 type  1   force =     0.00000000    0.00000000    0.00039612
     atom    2 type  1   force =     0.00000000    0.00000000   -0.00039612
     The non-local contrib.  to forces
     atom    1 type  1   force =     0.00000000    0.00000000    0.00065700
     atom    2 type  1   force =    -0.00000000    0.00000000   -0.00065968
     The ionic contribution  to forces
     atom    1 type  1   force =    -0.00000000    0.00000000    0.00064651
     atom    2 type  1   force =     0.00000000    0.00000000   -0.00064651
     The local contribution  to forces
     atom    1 type  1   force =     0.00000000    0.00000000   -0.00087577
     atom    2 type  1   force =    -0.00000000    0.00000000    0.00086844
     The core correction contribution to forces
     atom    1 type  1   force =     0.00000000   -0.00000000   -0.00003485
     atom    2 type  1   force =    -0.00000000   -0.00000000    0.00003430
     The Hubbard contrib.    to forces
     atom    1 type  1   force =     0.00000000    0.00000000    0.00000000
     atom    2 type  1   force =     0.00000000    0.00000000    0.00000000
     The SCF correction term to forces
     atom    1 type  1   force =     0.00000000   -0.00000000    0.00000272
     atom    2 type  1   force =     0.00000000   -0.00000000    0.00000684

     Total force =     0.000560     Total SCF correction =     0.000007


     Computing stress (Cartesian axis) and pressure

          total   stress  (Ry/bohr**3)                   (kbar)     P=       13.26
   0.00005153   0.00000000   0.00000000            7.58        0.00        0.00
   0.00000000   0.00002862  -0.00000000            0.00        4.21       -0.00
   0.00000000  -0.00000000   0.00019030            0.00       -0.00       27.99


     Writing all to output data dir ./Ge_out/Ge_scf.save/

     init_run     :      5.48s CPU      5.82s WALL (       1 calls)
     electrons    :    101.76s CPU    107.95s WALL (       1 calls)
     forces       :      0.77s CPU      0.80s WALL (       1 calls)
     stress       :      7.36s CPU      7.46s WALL (       1 calls)

     Called by init_run:
     wfcinit      :      5.02s CPU      5.34s WALL (       1 calls)
     potinit      :      0.11s CPU      0.11s WALL (       1 calls)
     hinit0       :      0.26s CPU      0.27s WALL (       1 calls)

     Called by electrons:
     c_bands      :     88.02s CPU     93.34s WALL (       6 calls)
     sum_band     :     13.56s CPU     14.38s WALL (       6 calls)
     v_of_rho     :      0.19s CPU      0.21s WALL (       6 calls)
     mix_rho      :      0.01s CPU      0.02s WALL (       6 calls)

     Called by c_bands:
     init_us_2    :      1.29s CPU      1.35s WALL (    1860 calls)
     init_us_2:cp :      1.28s CPU      1.34s WALL (    1860 calls)
     cegterg      :     80.65s CPU     85.30s WALL (     744 calls)

     Called by *egterg:
     cdiaghg      :      2.75s CPU      2.80s WALL (    2639 calls)
     h_psi        :     75.75s CPU     80.46s WALL (    2887 calls)
     g_psi        :      0.33s CPU      0.34s WALL (    2019 calls)

     Called by h_psi:
     h_psi:calbec :      1.93s CPU      2.07s WALL (    2887 calls)
     vloc_psi     :     71.85s CPU     76.34s WALL (    2887 calls)
     add_vuspsi   :      1.69s CPU      1.76s WALL (    2887 calls)

     General routines
     calbec       :      2.42s CPU      2.59s WALL (    3507 calls)
     fft          :      0.21s CPU      0.23s WALL (      85 calls)
     ffts         :      0.01s CPU      0.01s WALL (       6 calls)
     fftw         :     76.54s CPU     81.32s WALL (   89840 calls)

     Parallel routines

     PWSCF        :   1m55.85s CPU   2m 3.69s WALL


   This run was terminated on:  19:33: 0  26Apr2025            

=------------------------------------------------------------------------------=
   JOB DONE.
=------------------------------------------------------------------------------=
