
     Program PWSCF v.7.2 starts on 26Apr2025 at 19:57:10 

     This program is part of the open-source Quantum ESPRESSO suite
     for quantum simulation of materials; please cite
         "P. Giannozzi et al., J. Phys.:Condens. Matter 21 395502 (2009);
         "P. Giannozzi et al., J. Phys.:Condens. Matter 29 465901 (2017);
         "P. Giannozzi et al., J. Chem. Phys. 152 154105 (2020);
          URL http://www.quantum-espresso.org", 
     in publications or presentations arising from this work. More details at
     http://www.quantum-espresso.org/quote

     Parallel version (MPI), running on    16 processors

     MPI processes distributed on     1 nodes
     200740 MiB available memory on the printing compute node when the environment starts

     Waiting for input...
     Reading input from standard input
Warning: card &CELL ignored
Warning: card / ignored

     Current dimensions of program PWSCF are:
     Max number of different atomic species (ntypx) = 10
     Max number of k-points (npk) =  40000
     Max angular momentum in pseudopotentials (lmaxx) =  4

     K-points division:     npool     =       4
     R & G space division:  proc/nbgrp/npool/nimage =       4
     Subspace diagonalization in iterative solution of the eigenvalue problem:
     a serial algorithm will be used


     Parallelization info
     --------------------
     sticks:   dense  smooth     PW     G-vecs:    dense   smooth      PW
     Min         438     438    143                 8647     8647    1614
     Max         439     439    144                 8648     8648    1615
     Sum        1753    1753    573                34589    34589    6457

     Using Slab Decomposition



     bravais-lattice index     =            7
     lattice parameter (alat)  =      10.9982  a.u.
     unit-cell volume          =     357.2009 (a.u.)^3
     number of atoms/cell      =            2
     number of atomic types    =            1
     number of electrons       =        28.00
     number of Kohn-Sham states=           18
     kinetic-energy cutoff     =      80.0000  Ry
     charge density cutoff     =     320.0000  Ry
     scf convergence threshold =      1.0E-06
     mixing beta               =       0.4000
     number of iterations used =            8  plain     mixing
     Exchange-correlation= PBE
                           (   1   4   3   4   0   0   0)

     celldm(1)=  10.998229  celldm(2)=   0.000000  celldm(3)=   0.537000
     celldm(4)=   0.000000  celldm(5)=   0.000000  celldm(6)=   0.000000

     crystal axes: (cart. coord. in units of alat)
               a(1) = (   0.500000  -0.500000   0.268500 )  
               a(2) = (   0.500000   0.500000   0.268500 )  
               a(3) = (  -0.500000  -0.500000   0.268500 )  

     reciprocal axes: (cart. coord. in units 2 pi/alat)
               b(1) = (  1.000000 -1.000000  0.000000 )  
               b(2) = (  0.000000  1.000000  1.862197 )  
               b(3) = ( -1.000000  0.000000  1.862197 )  


     PseudoPot. # 1 for Ge read from file:
     ./Ge.upf
     MD5 check sum: 087fa14d6c89b52166990835c3b338da
     Pseudo is Norm-conserving + core correction, Zval = 14.0
     Generated using ONCVPSP code by D. R. Hamann
     Using radial grid of 1560 points,  6 beta functions with: 
                l(1) =   0
                l(2) =   0
                l(3) =   1
                l(4) =   1
                l(5) =   2
                l(6) =   2

     atomic species   valence    mass     pseudopotential
        Ge            14.00    72.63000     Ge( 1.00)

      4 Sym. Ops. (no inversion) found



   Cartesian axes

     site n.     atom                  positions (alat units)
         1           Ge  tau(   1) = (   0.0000000   0.0000000   0.0000000  )
         2           Ge  tau(   2) = (   0.0000000   0.5000000   0.1375000  )

     number of k points=   494  Gaussian smearing, width (Ry)=  0.0100

     Number of k-points >= 100: set verbosity='high' to print them.

     Dense  grid:    34589 G-vectors     FFT dimensions: (  48,  48,  48)

     Estimated max dynamical RAM per process >      45.82 MB

     Estimated total dynamical RAM >     707.81 MB

     Initial potential from superposition of free atoms

     starting charge      27.9984, renormalised to      28.0000
     Starting wfcs are   18 randomized atomic wfcs

     total cpu time spent up to now is        7.4 secs

     Self-consistent Calculation

     iteration #  1     ecut=    80.00 Ry     beta= 0.40
     Davidson diagonalization with overlap
     ethr =  1.00E-02,  avg # of iterations =  2.4

     Threshold (ethr) on eigenvalues was too large:
     Diagonalizing with lowered threshold

     Davidson diagonalization with overlap
     ethr =  1.92E-05,  avg # of iterations =  5.2

     total cpu time spent up to now is       60.6 secs

     total energy              =    -357.20578288 Ry
     estimated scf accuracy    <       0.00552297 Ry

     iteration #  2     ecut=    80.00 Ry     beta= 0.40
     Davidson diagonalization with overlap
     ethr =  1.97E-05,  avg # of iterations =  1.0

     total cpu time spent up to now is       76.6 secs

     total energy              =    -357.20589869 Ry
     estimated scf accuracy    <       0.00146806 Ry

     iteration #  3     ecut=    80.00 Ry     beta= 0.40
     Davidson diagonalization with overlap
     ethr =  5.24E-06,  avg # of iterations =  2.1

     total cpu time spent up to now is       94.7 secs

     total energy              =    -357.20608239 Ry
     estimated scf accuracy    <       0.00009158 Ry

     iteration #  4     ecut=    80.00 Ry     beta= 0.40
     Davidson diagonalization with overlap
     ethr =  3.27E-07,  avg # of iterations =  2.0

     total cpu time spent up to now is      115.5 secs

     total energy              =    -357.20609374 Ry
     estimated scf accuracy    <       0.00000739 Ry

     iteration #  5     ecut=    80.00 Ry     beta= 0.40
     Davidson diagonalization with overlap
     ethr =  2.64E-08,  avg # of iterations =  2.1

     total cpu time spent up to now is      136.9 secs

     End of self-consistent calculation

     Number of k-points >= 100: set verbosity='high' to print the bands.

     the Fermi energy is     7.3080 ev

!    total energy              =    -357.20609543 Ry
     estimated scf accuracy    <       0.00000050 Ry
     smearing contrib. (-TS)   =      -0.00089890 Ry
     internal energy E=F+TS    =    -357.20519653 Ry

     The total energy is F=E-TS. E is the sum of the following terms:
     one-electron contribution =    -176.69387313 Ry
     hartree contribution      =     105.39851216 Ry
     xc contribution           =     -86.96039452 Ry
     ewald contribution        =    -198.94944105 Ry

     convergence has been achieved in   5 iterations

     Forces acting on atoms (cartesian axes, Ry/au):

     atom    1 type  1   force =     0.00000000    0.00000000    0.00011547
     atom    2 type  1   force =     0.00000000    0.00000000   -0.00011547
     The non-local contrib.  to forces
     atom    1 type  1   force =     0.00000000    0.00000000    0.00098197
     atom    2 type  1   force =     0.00000000    0.00000000   -0.00098241
     The ionic contribution  to forces
     atom    1 type  1   force =     0.00000000    0.00000000    0.00051610
     atom    2 type  1   force =     0.00000000    0.00000000   -0.00051610
     The local contribution  to forces
     atom    1 type  1   force =    -0.00000000   -0.00000000   -0.00138395
     atom    2 type  1   force =    -0.00000000    0.00000000    0.00138424
     The core correction contribution to forces
     atom    1 type  1   force =    -0.00000000   -0.00000000    0.00000821
     atom    2 type  1   force =    -0.00000000   -0.00000000   -0.00000837
     The Hubbard contrib.    to forces
     atom    1 type  1   force =     0.00000000    0.00000000    0.00000000
     atom    2 type  1   force =     0.00000000    0.00000000    0.00000000
     The SCF correction term to forces
     atom    1 type  1   force =    -0.00000000    0.00000000   -0.00000782
     atom    2 type  1   force =     0.00000000   -0.00000000    0.00000621

     Total force =     0.000163     Total SCF correction =     0.000010


     Computing stress (Cartesian axis) and pressure

          total   stress  (Ry/bohr**3)                   (kbar)     P=     -103.89
  -0.00072366  -0.00000000  -0.00000000         -106.45       -0.00       -0.00
   0.00000000  -0.00072673   0.00000000            0.00     -106.91        0.00
   0.00000000   0.00000000  -0.00066821            0.00        0.00      -98.30


     Writing all to output data dir ./Ge_out/Ge_scf.save/

     init_run     :      6.67s CPU      7.12s WALL (       1 calls)
     electrons    :    122.40s CPU    129.56s WALL (       1 calls)
     forces       :      1.11s CPU      1.16s WALL (       1 calls)
     stress       :     10.58s CPU     10.71s WALL (       1 calls)

     Called by init_run:
     wfcinit      :      5.91s CPU      6.32s WALL (       1 calls)
     potinit      :      0.14s CPU      0.15s WALL (       1 calls)
     hinit0       :      0.46s CPU      0.48s WALL (       1 calls)

     Called by electrons:
     c_bands      :    100.90s CPU    106.87s WALL (       6 calls)
     sum_band     :     16.01s CPU     17.09s WALL (       6 calls)
     v_of_rho     :      0.23s CPU      0.25s WALL (       6 calls)
     mix_rho      :      0.02s CPU      0.02s WALL (       6 calls)

     Called by c_bands:
     init_us_2    :      1.87s CPU      1.96s WALL (    1860 calls)
     init_us_2:cp :      1.86s CPU      1.95s WALL (    1860 calls)
     cegterg      :     92.87s CPU     98.02s WALL (     744 calls)

     Called by *egterg:
     cdiaghg      :      2.62s CPU      2.67s WALL (    2546 calls)
     h_psi        :     86.20s CPU     91.47s WALL (    2794 calls)
     g_psi        :      0.45s CPU      0.46s WALL (    1926 calls)

     Called by h_psi:
     h_psi:calbec :      2.75s CPU      2.92s WALL (    2794 calls)
     vloc_psi     :     80.55s CPU     85.59s WALL (    2794 calls)
     add_vuspsi   :      2.43s CPU      2.48s WALL (    2794 calls)

     General routines
     calbec       :      3.41s CPU      3.60s WALL (    3414 calls)
     fft          :      0.41s CPU      0.44s WALL (      85 calls)
     ffts         :      0.01s CPU      0.01s WALL (       6 calls)
     fftw         :     85.21s CPU     90.75s WALL (   88668 calls)

     Parallel routines

     PWSCF        :   2m21.23s CPU   2m30.79s WALL


   This run was terminated on:  19:59:40  26Apr2025            

=------------------------------------------------------------------------------=
   JOB DONE.
=------------------------------------------------------------------------------=
