
     Program PWSCF v.7.2 starts on 27Apr2025 at  8:30:22 

     This program is part of the open-source Quantum ESPRESSO suite
     for quantum simulation of materials; please cite
         "P. Giannozzi et al., J. Phys.:Condens. Matter 21 395502 (2009);
         "P. Giannozzi et al., J. Phys.:Condens. Matter 29 465901 (2017);
         "P. Giannozzi et al., J. Chem. Phys. 152 154105 (2020);
          URL http://www.quantum-espresso.org", 
     in publications or presentations arising from this work. More details at
     http://www.quantum-espresso.org/quote

     Parallel version (MPI), running on    16 processors

     MPI processes distributed on     1 nodes
     200708 MiB available memory on the printing compute node when the environment starts

     Waiting for input...
     Reading input from standard input
Warning: card &CELL ignored
Warning: card / ignored

     Current dimensions of program PWSCF are:
     Max number of different atomic species (ntypx) = 10
     Max number of k-points (npk) =  40000
     Max angular momentum in pseudopotentials (lmaxx) =  4

     K-points division:     npool     =       4
     R & G space division:  proc/nbgrp/npool/nimage =       4
     Subspace diagonalization in iterative solution of the eigenvalue problem:
     a serial algorithm will be used


     Parallelization info
     --------------------
     sticks:   dense  smooth     PW     G-vecs:    dense   smooth      PW
     Min         334     334    112                 5805     5805    1122
     Max         335     335    113                 5806     5806    1123
     Sum        1337    1337    449                23223    23223    4489

     Using Slab Decomposition



     bravais-lattice index     =            7
     lattice parameter (alat)  =       9.6376  a.u.
     unit-cell volume          =     240.3555 (a.u.)^3
     number of atoms/cell      =            2
     number of atomic types    =            1
     number of electrons       =        28.00
     number of Kohn-Sham states=           18
     kinetic-energy cutoff     =      80.0000  Ry
     charge density cutoff     =     320.0000  Ry
     scf convergence threshold =      1.0E-06
     mixing beta               =       0.4000
     number of iterations used =            8  plain     mixing
     Exchange-correlation= PBE
                           (   1   4   3   4   0   0   0)

     celldm(1)=   9.637623  celldm(2)=   0.000000  celldm(3)=   0.537000
     celldm(4)=   0.000000  celldm(5)=   0.000000  celldm(6)=   0.000000

     crystal axes: (cart. coord. in units of alat)
               a(1) = (   0.500000  -0.500000   0.268500 )  
               a(2) = (   0.500000   0.500000   0.268500 )  
               a(3) = (  -0.500000  -0.500000   0.268500 )  

     reciprocal axes: (cart. coord. in units 2 pi/alat)
               b(1) = (  1.000000 -1.000000  0.000000 )  
               b(2) = (  0.000000  1.000000  1.862197 )  
               b(3) = ( -1.000000  0.000000  1.862197 )  


     PseudoPot. # 1 for Ge read from file:
     ./Ge.upf
     MD5 check sum: 087fa14d6c89b52166990835c3b338da
     Pseudo is Norm-conserving + core correction, Zval = 14.0
     Generated using ONCVPSP code by D. R. Hamann
     Using radial grid of 1560 points,  6 beta functions with: 
                l(1) =   0
                l(2) =   0
                l(3) =   1
                l(4) =   1
                l(5) =   2
                l(6) =   2

     atomic species   valence    mass     pseudopotential
        Ge            14.00    72.63000     Ge( 1.00)

      4 Sym. Ops. (no inversion) found



   Cartesian axes

     site n.     atom                  positions (alat units)
         1           Ge  tau(   1) = (   0.0000000   0.0000000   0.0000000  )
         2           Ge  tau(   2) = (   0.0000000   0.5000000   0.1375000  )

     number of k points=   494  Gaussian smearing, width (Ry)=  0.0100

     Number of k-points >= 100: set verbosity='high' to print them.

     Dense  grid:    23223 G-vectors     FFT dimensions: (  45,  45,  45)

     Estimated max dynamical RAM per process >      31.71 MB

     Estimated total dynamical RAM >     490.34 MB

     Initial potential from superposition of free atoms

     starting charge      27.9984, renormalised to      28.0000
     Starting wfcs are   18 randomized atomic wfcs

     total cpu time spent up to now is        6.1 secs

     Self-consistent Calculation

     iteration #  1     ecut=    80.00 Ry     beta= 0.40
     Davidson diagonalization with overlap
     ethr =  1.00E-02,  avg # of iterations =  3.4

     Threshold (ethr) on eigenvalues was too large:
     Diagonalizing with lowered threshold

     Davidson diagonalization with overlap
     ethr =  2.92E-05,  avg # of iterations =  5.4

     total cpu time spent up to now is       48.0 secs

     total energy              =    -357.24707544 Ry
     estimated scf accuracy    <       0.00836557 Ry

     iteration #  2     ecut=    80.00 Ry     beta= 0.40
     Davidson diagonalization with overlap
     ethr =  2.99E-05,  avg # of iterations =  1.0

     total cpu time spent up to now is       61.5 secs

     total energy              =    -357.24719406 Ry
     estimated scf accuracy    <       0.00228804 Ry

     iteration #  3     ecut=    80.00 Ry     beta= 0.40
     Davidson diagonalization with overlap
     ethr =  8.17E-06,  avg # of iterations =  2.0

     total cpu time spent up to now is       78.4 secs

     total energy              =    -357.24744125 Ry
     estimated scf accuracy    <       0.00017228 Ry

     iteration #  4     ecut=    80.00 Ry     beta= 0.40
     Davidson diagonalization with overlap
     ethr =  6.15E-07,  avg # of iterations =  2.1

     total cpu time spent up to now is       96.3 secs

     total energy              =    -357.24745714 Ry
     estimated scf accuracy    <       0.00001619 Ry

     iteration #  5     ecut=    80.00 Ry     beta= 0.40
     Davidson diagonalization with overlap
     ethr =  5.78E-08,  avg # of iterations =  2.0

     total cpu time spent up to now is      113.3 secs

     End of self-consistent calculation

     Number of k-points >= 100: set verbosity='high' to print the bands.

     the Fermi energy is    13.0440 ev

!    total energy              =    -357.24745928 Ry
     estimated scf accuracy    <       0.00000031 Ry
     smearing contrib. (-TS)   =      -0.00047207 Ry
     internal energy E=F+TS    =    -357.24698721 Ry

     The total energy is F=E-TS. E is the sum of the following terms:
     one-electron contribution =    -131.34479895 Ry
     hartree contribution      =      88.48686610 Ry
     xc contribution           =     -87.35263341 Ry
     ewald contribution        =    -227.03642096 Ry

     convergence has been achieved in   5 iterations

     Forces acting on atoms (cartesian axes, Ry/au):

     atom    1 type  1   force =     0.00000000    0.00000000    0.00044224
     atom    2 type  1   force =    -0.00000000    0.00000000   -0.00044224
     The non-local contrib.  to forces
     atom    1 type  1   force =     0.00000000    0.00000000    0.00045733
     atom    2 type  1   force =     0.00000000    0.00000000   -0.00045143
     The ionic contribution  to forces
     atom    1 type  1   force =    -0.00000000   -0.00000000    0.00067211
     atom    2 type  1   force =     0.00000000    0.00000000   -0.00067211
     The local contribution  to forces
     atom    1 type  1   force =    -0.00000000    0.00000000   -0.00062303
     atom    2 type  1   force =     0.00000000    0.00000000    0.00063459
     The core correction contribution to forces
     atom    1 type  1   force =    -0.00000000   -0.00000000   -0.00004427
     atom    2 type  1   force =     0.00000000   -0.00000000    0.00004491
     The Hubbard contrib.    to forces
     atom    1 type  1   force =     0.00000000    0.00000000    0.00000000
     atom    2 type  1   force =     0.00000000    0.00000000    0.00000000
     The SCF correction term to forces
     atom    1 type  1   force =     0.00000000   -0.00000000   -0.00001816
     atom    2 type  1   force =    -0.00000000   -0.00000000    0.00000355

     Total force =     0.000625     Total SCF correction =     0.000019


     Computing stress (Cartesian axis) and pressure

          total   stress  (Ry/bohr**3)                   (kbar)     P=       63.44
   0.00038963   0.00000000  -0.00000000           57.32        0.00       -0.00
   0.00000000   0.00036287   0.00000000            0.00       53.38        0.00
  -0.00000000   0.00000000   0.00054131           -0.00        0.00       79.63


     Writing all to output data dir ./Ge_out/Ge_scf.save/

     init_run     :      5.49s CPU      5.84s WALL (       1 calls)
     electrons    :    100.93s CPU    107.21s WALL (       1 calls)
     forces       :      0.74s CPU      0.77s WALL (       1 calls)
     stress       :      6.95s CPU      7.06s WALL (       1 calls)

     Called by init_run:
     wfcinit      :      5.06s CPU      5.38s WALL (       1 calls)
     potinit      :      0.10s CPU      0.11s WALL (       1 calls)
     hinit0       :      0.24s CPU      0.25s WALL (       1 calls)

     Called by electrons:
     c_bands      :     87.25s CPU     92.73s WALL (       6 calls)
     sum_band     :     13.51s CPU     14.22s WALL (       6 calls)
     v_of_rho     :      0.18s CPU      0.21s WALL (       6 calls)
     mix_rho      :      0.01s CPU      0.02s WALL (       6 calls)

     Called by c_bands:
     init_us_2    :      1.19s CPU      1.27s WALL (    1860 calls)
     init_us_2:cp :      1.18s CPU      1.26s WALL (    1860 calls)
     cegterg      :     81.99s CPU     86.54s WALL (     744 calls)

     Called by *egterg:
     cdiaghg      :      2.69s CPU      2.75s WALL (    2640 calls)
     h_psi        :     77.54s CPU     82.18s WALL (    2888 calls)
     g_psi        :      0.30s CPU      0.30s WALL (    2020 calls)

     Called by h_psi:
     h_psi:calbec :      1.89s CPU      2.01s WALL (    2888 calls)
     vloc_psi     :     73.74s CPU     78.18s WALL (    2888 calls)
     add_vuspsi   :      1.62s CPU      1.68s WALL (    2888 calls)

     General routines
     calbec       :      2.31s CPU      2.45s WALL (    3508 calls)
     fft          :      0.19s CPU      0.21s WALL (      85 calls)
     ffts         :      0.01s CPU      0.01s WALL (       6 calls)
     fftw         :     78.62s CPU     83.30s WALL (   89962 calls)

     Parallel routines

     PWSCF        :   1m54.57s CPU   2m 2.62s WALL


   This run was terminated on:   8:32:25  27Apr2025            

=------------------------------------------------------------------------------=
   JOB DONE.
=------------------------------------------------------------------------------=
