
     Program PWSCF v.7.2 starts on 26Apr2025 at 20: 2:33 

     This program is part of the open-source Quantum ESPRESSO suite
     for quantum simulation of materials; please cite
         "P. Giannozzi et al., J. Phys.:Condens. Matter 21 395502 (2009);
         "P. Giannozzi et al., J. Phys.:Condens. Matter 29 465901 (2017);
         "P. Giannozzi et al., J. Chem. Phys. 152 154105 (2020);
          URL http://www.quantum-espresso.org", 
     in publications or presentations arising from this work. More details at
     http://www.quantum-espresso.org/quote

     Parallel version (MPI), running on    16 processors

     MPI processes distributed on     1 nodes
     200751 MiB available memory on the printing compute node when the environment starts

     Waiting for input...
     Reading input from standard input
Warning: card &CELL ignored
Warning: card / ignored

     Current dimensions of program PWSCF are:
     Max number of different atomic species (ntypx) = 10
     Max number of k-points (npk) =  40000
     Max angular momentum in pseudopotentials (lmaxx) =  4

     K-points division:     npool     =       4
     R & G space division:  proc/nbgrp/npool/nimage =       4
     Subspace diagonalization in iterative solution of the eigenvalue problem:
     a serial algorithm will be used


     Parallelization info
     --------------------
     sticks:   dense  smooth     PW     G-vecs:    dense   smooth      PW
     Min         445     445    145                 8953     8953    1679
     Max         446     446    146                 8954     8954    1680
     Sum        1783    1783    583                35813    35813    6717

     Using Slab Decomposition



     bravais-lattice index     =            7
     lattice parameter (alat)  =      11.1494  a.u.
     unit-cell volume          =     372.1342 (a.u.)^3
     number of atoms/cell      =            2
     number of atomic types    =            1
     number of electrons       =        28.00
     number of Kohn-Sham states=           18
     kinetic-energy cutoff     =      80.0000  Ry
     charge density cutoff     =     320.0000  Ry
     scf convergence threshold =      1.0E-06
     mixing beta               =       0.4000
     number of iterations used =            8  plain     mixing
     Exchange-correlation= PBE
                           (   1   4   3   4   0   0   0)

     celldm(1)=  11.149407  celldm(2)=   0.000000  celldm(3)=   0.537000
     celldm(4)=   0.000000  celldm(5)=   0.000000  celldm(6)=   0.000000

     crystal axes: (cart. coord. in units of alat)
               a(1) = (   0.500000  -0.500000   0.268500 )  
               a(2) = (   0.500000   0.500000   0.268500 )  
               a(3) = (  -0.500000  -0.500000   0.268500 )  

     reciprocal axes: (cart. coord. in units 2 pi/alat)
               b(1) = (  1.000000 -1.000000  0.000000 )  
               b(2) = (  0.000000  1.000000  1.862197 )  
               b(3) = ( -1.000000  0.000000  1.862197 )  


     PseudoPot. # 1 for Ge read from file:
     ./Ge.upf
     MD5 check sum: 087fa14d6c89b52166990835c3b338da
     Pseudo is Norm-conserving + core correction, Zval = 14.0
     Generated using ONCVPSP code by D. R. Hamann
     Using radial grid of 1560 points,  6 beta functions with: 
                l(1) =   0
                l(2) =   0
                l(3) =   1
                l(4) =   1
                l(5) =   2
                l(6) =   2

     atomic species   valence    mass     pseudopotential
        Ge            14.00    72.63000     Ge( 1.00)

      4 Sym. Ops. (no inversion) found



   Cartesian axes

     site n.     atom                  positions (alat units)
         1           Ge  tau(   1) = (   0.0000000   0.0000000   0.0000000  )
         2           Ge  tau(   2) = (   0.0000000   0.5000000   0.1375000  )

     number of k points=   494  Gaussian smearing, width (Ry)=  0.0100

     Number of k-points >= 100: set verbosity='high' to print them.

     Dense  grid:    35813 G-vectors     FFT dimensions: (  50,  50,  50)

     Estimated max dynamical RAM per process >      47.90 MB

     Estimated total dynamical RAM >     740.19 MB

     Initial potential from superposition of free atoms

     starting charge      27.9984, renormalised to      28.0000
     Starting wfcs are   18 randomized atomic wfcs

     total cpu time spent up to now is        8.3 secs

     Self-consistent Calculation

     iteration #  1     ecut=    80.00 Ry     beta= 0.40
     Davidson diagonalization with overlap
     ethr =  1.00E-02,  avg # of iterations =  2.4

     Threshold (ethr) on eigenvalues was too large:
     Diagonalizing with lowered threshold

     Davidson diagonalization with overlap
     ethr =  1.91E-05,  avg # of iterations =  5.1

     total cpu time spent up to now is       63.5 secs

     total energy              =    -357.19499573 Ry
     estimated scf accuracy    <       0.00547902 Ry

     iteration #  2     ecut=    80.00 Ry     beta= 0.40
     Davidson diagonalization with overlap
     ethr =  1.96E-05,  avg # of iterations =  1.0

     total cpu time spent up to now is       82.0 secs

     total energy              =    -357.19510346 Ry
     estimated scf accuracy    <       0.00144624 Ry

     iteration #  3     ecut=    80.00 Ry     beta= 0.40
     Davidson diagonalization with overlap
     ethr =  5.17E-06,  avg # of iterations =  2.1

     total cpu time spent up to now is      103.3 secs

     total energy              =    -357.19528774 Ry
     estimated scf accuracy    <       0.00008665 Ry

     iteration #  4     ecut=    80.00 Ry     beta= 0.40
     Davidson diagonalization with overlap
     ethr =  3.09E-07,  avg # of iterations =  2.0

     total cpu time spent up to now is      127.5 secs

     total energy              =    -357.19529880 Ry
     estimated scf accuracy    <       0.00000686 Ry

     iteration #  5     ecut=    80.00 Ry     beta= 0.40
     Davidson diagonalization with overlap
     ethr =  2.45E-08,  avg # of iterations =  2.0

     total cpu time spent up to now is      152.1 secs

     End of self-consistent calculation

     Number of k-points >= 100: set verbosity='high' to print the bands.

     the Fermi energy is     6.8361 ev

!    total energy              =    -357.19530033 Ry
     estimated scf accuracy    <       0.00000057 Ry
     smearing contrib. (-TS)   =      -0.00097251 Ry
     internal energy E=F+TS    =    -357.19432782 Ry

     The total energy is F=E-TS. E is the sum of the following terms:
     one-electron contribution =    -181.13982550 Ry
     hartree contribution      =     107.12609753 Ry
     xc contribution           =     -86.92877835 Ry
     ewald contribution        =    -196.25182151 Ry

     convergence has been achieved in   5 iterations

     Forces acting on atoms (cartesian axes, Ry/au):

     atom    1 type  1   force =     0.00000000   -0.00000000    0.00007657
     atom    2 type  1   force =     0.00000000    0.00000000   -0.00007657
     The non-local contrib.  to forces
     atom    1 type  1   force =     0.00000000    0.00000000    0.00097291
     atom    2 type  1   force =     0.00000000    0.00000000   -0.00097338
     The ionic contribution  to forces
     atom    1 type  1   force =     0.00000000    0.00000000    0.00050220
     atom    2 type  1   force =     0.00000000    0.00000000   -0.00050220
     The local contribution  to forces
     atom    1 type  1   force =    -0.00000000   -0.00000000   -0.00140452
     atom    2 type  1   force =    -0.00000000    0.00000000    0.00140322
     The core correction contribution to forces
     atom    1 type  1   force =     0.00000000    0.00000000    0.00001204
     atom    2 type  1   force =    -0.00000000   -0.00000000   -0.00001194
     The Hubbard contrib.    to forces
     atom    1 type  1   force =     0.00000000    0.00000000    0.00000000
     atom    2 type  1   force =     0.00000000    0.00000000    0.00000000
     The SCF correction term to forces
     atom    1 type  1   force =     0.00000000   -0.00000000   -0.00000432
     atom    2 type  1   force =     0.00000000    0.00000000    0.00000945

     Total force =     0.000108     Total SCF correction =     0.000010


     Computing stress (Cartesian axis) and pressure

          total   stress  (Ry/bohr**3)                   (kbar)     P=     -107.03
  -0.00074336  -0.00000000  -0.00000000         -109.35       -0.00       -0.00
   0.00000000  -0.00074549   0.00000000            0.00     -109.67        0.00
  -0.00000000   0.00000000  -0.00069397           -0.00        0.00     -102.09


     Writing all to output data dir ./Ge_out/Ge_scf.save/

     init_run     :      7.60s CPU      8.04s WALL (       1 calls)
     electrons    :    135.93s CPU    143.84s WALL (       1 calls)
     forces       :      1.15s CPU      1.22s WALL (       1 calls)
     stress       :     10.88s CPU     11.03s WALL (       1 calls)

     Called by init_run:
     wfcinit      :      6.95s CPU      7.35s WALL (       1 calls)
     potinit      :      0.15s CPU      0.16s WALL (       1 calls)
     hinit0       :      0.33s CPU      0.34s WALL (       1 calls)

     Called by electrons:
     c_bands      :    116.23s CPU    122.93s WALL (       6 calls)
     sum_band     :     19.44s CPU     20.56s WALL (       6 calls)
     v_of_rho     :      0.26s CPU      0.30s WALL (       6 calls)
     mix_rho      :      0.02s CPU      0.03s WALL (       6 calls)

     Called by c_bands:
     init_us_2    :      1.94s CPU      2.05s WALL (    1860 calls)
     init_us_2:cp :      1.93s CPU      2.04s WALL (    1860 calls)
     cegterg      :    109.16s CPU    114.98s WALL (     744 calls)

     Called by *egterg:
     cdiaghg      :      2.55s CPU      2.60s WALL (    2512 calls)
     h_psi        :    103.27s CPU    109.19s WALL (    2760 calls)
     g_psi        :      0.47s CPU      0.48s WALL (    1892 calls)

     Called by h_psi:
     h_psi:calbec :      2.94s CPU      3.11s WALL (    2760 calls)
     vloc_psi     :     97.35s CPU    103.03s WALL (    2760 calls)
     add_vuspsi   :      2.51s CPU      2.57s WALL (    2760 calls)

     General routines
     calbec       :      3.63s CPU      3.83s WALL (    3380 calls)
     fft          :      0.28s CPU      0.31s WALL (      85 calls)
     ffts         :      0.01s CPU      0.01s WALL (       6 calls)
     fftw         :    102.47s CPU    108.53s WALL (   88580 calls)

     Parallel routines

     PWSCF        :   2m36.05s CPU   2m46.44s WALL


   This run was terminated on:  20: 5:19  26Apr2025            

=------------------------------------------------------------------------------=
   JOB DONE.
=------------------------------------------------------------------------------=
