
     Program PWSCF v.7.2 starts on 26Apr2025 at 19:49:51 

     This program is part of the open-source Quantum ESPRESSO suite
     for quantum simulation of materials; please cite
         "P. Giannozzi et al., J. Phys.:Condens. Matter 21 395502 (2009);
         "P. Giannozzi et al., J. Phys.:Condens. Matter 29 465901 (2017);
         "P. Giannozzi et al., J. Chem. Phys. 152 154105 (2020);
          URL http://www.quantum-espresso.org", 
     in publications or presentations arising from this work. More details at
     http://www.quantum-espresso.org/quote

     Parallel version (MPI), running on    16 processors

     MPI processes distributed on     1 nodes
     200736 MiB available memory on the printing compute node when the environment starts

     Waiting for input...
     Reading input from standard input
Warning: card &CELL ignored
Warning: card / ignored

     Current dimensions of program PWSCF are:
     Max number of different atomic species (ntypx) = 10
     Max number of k-points (npk) =  40000
     Max angular momentum in pseudopotentials (lmaxx) =  4

     K-points division:     npool     =       4
     R & G space division:  proc/nbgrp/npool/nimage =       4
     Subspace diagonalization in iterative solution of the eigenvalue problem:
     a serial algorithm will be used


     Parallelization info
     --------------------
     sticks:   dense  smooth     PW     G-vecs:    dense   smooth      PW
     Min         428     428    140                 8372     8372    1566
     Max         429     429    141                 8373     8373    1567
     Sum        1713    1713    561                33489    33489    6265

     Using Slab Decomposition



     bravais-lattice index     =            7
     lattice parameter (alat)  =      10.8848  a.u.
     unit-cell volume          =     346.2669 (a.u.)^3
     number of atoms/cell      =            2
     number of atomic types    =            1
     number of electrons       =        28.00
     number of Kohn-Sham states=           18
     kinetic-energy cutoff     =      80.0000  Ry
     charge density cutoff     =     320.0000  Ry
     scf convergence threshold =      1.0E-06
     mixing beta               =       0.4000
     number of iterations used =            8  plain     mixing
     Exchange-correlation= PBE
                           (   1   4   3   4   0   0   0)

     celldm(1)=  10.884845  celldm(2)=   0.000000  celldm(3)=   0.537000
     celldm(4)=   0.000000  celldm(5)=   0.000000  celldm(6)=   0.000000

     crystal axes: (cart. coord. in units of alat)
               a(1) = (   0.500000  -0.500000   0.268500 )  
               a(2) = (   0.500000   0.500000   0.268500 )  
               a(3) = (  -0.500000  -0.500000   0.268500 )  

     reciprocal axes: (cart. coord. in units 2 pi/alat)
               b(1) = (  1.000000 -1.000000  0.000000 )  
               b(2) = (  0.000000  1.000000  1.862197 )  
               b(3) = ( -1.000000  0.000000  1.862197 )  


     PseudoPot. # 1 for Ge read from file:
     ./Ge.upf
     MD5 check sum: 087fa14d6c89b52166990835c3b338da
     Pseudo is Norm-conserving + core correction, Zval = 14.0
     Generated using ONCVPSP code by D. R. Hamann
     Using radial grid of 1560 points,  6 beta functions with: 
                l(1) =   0
                l(2) =   0
                l(3) =   1
                l(4) =   1
                l(5) =   2
                l(6) =   2

     atomic species   valence    mass     pseudopotential
        Ge            14.00    72.63000     Ge( 1.00)

      4 Sym. Ops. (no inversion) found



   Cartesian axes

     site n.     atom                  positions (alat units)
         1           Ge  tau(   1) = (   0.0000000   0.0000000   0.0000000  )
         2           Ge  tau(   2) = (   0.0000000   0.5000000   0.1375000  )

     number of k points=   494  Gaussian smearing, width (Ry)=  0.0100

     Number of k-points >= 100: set verbosity='high' to print them.

     Dense  grid:    33489 G-vectors     FFT dimensions: (  48,  48,  48)

     Estimated max dynamical RAM per process >      44.52 MB

     Estimated total dynamical RAM >     687.79 MB

     Initial potential from superposition of free atoms

     starting charge      27.9984, renormalised to      28.0000
     Starting wfcs are   18 randomized atomic wfcs

     total cpu time spent up to now is        7.2 secs

     Self-consistent Calculation

     iteration #  1     ecut=    80.00 Ry     beta= 0.40
     Davidson diagonalization with overlap
     ethr =  1.00E-02,  avg # of iterations =  2.4

     Threshold (ethr) on eigenvalues was too large:
     Diagonalizing with lowered threshold

     Davidson diagonalization with overlap
     ethr =  1.94E-05,  avg # of iterations =  5.3

     total cpu time spent up to now is       54.4 secs

     total energy              =    -357.21342718 Ry
     estimated scf accuracy    <       0.00558376 Ry

     iteration #  2     ecut=    80.00 Ry     beta= 0.40
     Davidson diagonalization with overlap
     ethr =  1.99E-05,  avg # of iterations =  1.0

     total cpu time spent up to now is       70.1 secs

     total energy              =    -357.21354915 Ry
     estimated scf accuracy    <       0.00149161 Ry

     iteration #  3     ecut=    80.00 Ry     beta= 0.40
     Davidson diagonalization with overlap
     ethr =  5.33E-06,  avg # of iterations =  2.1

     total cpu time spent up to now is       88.0 secs

     total energy              =    -357.21373239 Ry
     estimated scf accuracy    <       0.00009556 Ry

     iteration #  4     ecut=    80.00 Ry     beta= 0.40
     Davidson diagonalization with overlap
     ethr =  3.41E-07,  avg # of iterations =  2.1

     total cpu time spent up to now is      108.4 secs

     total energy              =    -357.21374402 Ry
     estimated scf accuracy    <       0.00000773 Ry

     iteration #  5     ecut=    80.00 Ry     beta= 0.40
     Davidson diagonalization with overlap
     ethr =  2.76E-08,  avg # of iterations =  2.1

     total cpu time spent up to now is      129.3 secs

     End of self-consistent calculation

     Number of k-points >= 100: set verbosity='high' to print the bands.

     the Fermi energy is     7.6801 ev

!    total energy              =    -357.21374580 Ry
     estimated scf accuracy    <       0.00000042 Ry
     smearing contrib. (-TS)   =      -0.00084781 Ry
     internal energy E=F+TS    =    -357.21289798 Ry

     The total energy is F=E-TS. E is the sum of the following terms:
     one-electron contribution =    -173.28945656 Ry
     hartree contribution      =     104.08375646 Ry
     xc contribution           =     -86.98536683 Ry
     ewald contribution        =    -201.02183106 Ry

     convergence has been achieved in   5 iterations

     Forces acting on atoms (cartesian axes, Ry/au):

     atom    1 type  1   force =     0.00000000    0.00000000    0.00014112
     atom    2 type  1   force =     0.00000000    0.00000000   -0.00014112
     The non-local contrib.  to forces
     atom    1 type  1   force =     0.00000000    0.00000000    0.00097730
     atom    2 type  1   force =     0.00000000    0.00000000   -0.00097642
     The ionic contribution  to forces
     atom    1 type  1   force =    -0.00000000    0.00000000    0.00052691
     atom    2 type  1   force =     0.00000000    0.00000000   -0.00052691
     The local contribution  to forces
     atom    1 type  1   force =    -0.00000000    0.00000000   -0.00136126
     atom    2 type  1   force =    -0.00000000    0.00000000    0.00135956
     The core correction contribution to forces
     atom    1 type  1   force =    -0.00000000   -0.00000000    0.00000438
     atom    2 type  1   force =    -0.00000000   -0.00000000   -0.00000469
     The Hubbard contrib.    to forces
     atom    1 type  1   force =     0.00000000    0.00000000    0.00000000
     atom    2 type  1   force =     0.00000000    0.00000000    0.00000000
     The SCF correction term to forces
     atom    1 type  1   force =    -0.00000000   -0.00000000   -0.00000635
     atom    2 type  1   force =     0.00000000   -0.00000000    0.00000721

     Total force =     0.000200     Total SCF correction =     0.000010


     Computing stress (Cartesian axis) and pressure

          total   stress  (Ry/bohr**3)                   (kbar)     P=     -100.54
  -0.00070237   0.00000000  -0.00000000         -103.32        0.00       -0.00
   0.00000000  -0.00070618   0.00000000            0.00     -103.88        0.00
  -0.00000000   0.00000000  -0.00064176           -0.00        0.00      -94.41


     Writing all to output data dir ./Ge_out/Ge_scf.save/

     init_run     :      6.61s CPU      6.99s WALL (       1 calls)
     electrons    :    114.96s CPU    122.05s WALL (       1 calls)
     forces       :      1.10s CPU      1.17s WALL (       1 calls)
     stress       :     10.10s CPU     10.23s WALL (       1 calls)

     Called by init_run:
     wfcinit      :      5.88s CPU      6.23s WALL (       1 calls)
     potinit      :      0.15s CPU      0.16s WALL (       1 calls)
     hinit0       :      0.43s CPU      0.44s WALL (       1 calls)

     Called by electrons:
     c_bands      :     98.70s CPU    104.71s WALL (       6 calls)
     sum_band     :     16.03s CPU     17.04s WALL (       6 calls)
     v_of_rho     :      0.23s CPU      0.26s WALL (       6 calls)
     mix_rho      :      0.02s CPU      0.02s WALL (       6 calls)

     Called by c_bands:
     init_us_2    :      1.72s CPU      1.86s WALL (    1860 calls)
     init_us_2:cp :      1.71s CPU      1.85s WALL (    1860 calls)
     cegterg      :     92.23s CPU     97.52s WALL (     744 calls)

     Called by *egterg:
     cdiaghg      :      2.61s CPU      2.66s WALL (    2568 calls)
     h_psi        :     85.88s CPU     91.24s WALL (    2816 calls)
     g_psi        :      0.45s CPU      0.46s WALL (    1948 calls)

     Called by h_psi:
     h_psi:calbec :      2.62s CPU      2.80s WALL (    2816 calls)
     vloc_psi     :     80.50s CPU     85.61s WALL (    2816 calls)
     add_vuspsi   :      2.35s CPU      2.40s WALL (    2816 calls)

     General routines
     calbec       :      3.25s CPU      3.46s WALL (    3436 calls)
     fft          :      0.39s CPU      0.42s WALL (      85 calls)
     ffts         :      0.01s CPU      0.01s WALL (       6 calls)
     fftw         :     85.71s CPU     91.35s WALL (   88762 calls)

     Parallel routines

     PWSCF        :   2m13.24s CPU   2m22.70s WALL


   This run was terminated on:  19:52:14  26Apr2025            

=------------------------------------------------------------------------------=
   JOB DONE.
=------------------------------------------------------------------------------=
