
     Program PWSCF v.7.2 starts on 26Apr2025 at 19:47:28 

     This program is part of the open-source Quantum ESPRESSO suite
     for quantum simulation of materials; please cite
         "P. Giannozzi et al., J. Phys.:Condens. Matter 21 395502 (2009);
         "P. Giannozzi et al., J. Phys.:Condens. Matter 29 465901 (2017);
         "P. Giannozzi et al., J. Chem. Phys. 152 154105 (2020);
          URL http://www.quantum-espresso.org", 
     in publications or presentations arising from this work. More details at
     http://www.quantum-espresso.org/quote

     Parallel version (MPI), running on    16 processors

     MPI processes distributed on     1 nodes
     200744 MiB available memory on the printing compute node when the environment starts

     Waiting for input...
     Reading input from standard input
Warning: card &CELL ignored
Warning: card / ignored

     Current dimensions of program PWSCF are:
     Max number of different atomic species (ntypx) = 10
     Max number of k-points (npk) =  40000
     Max angular momentum in pseudopotentials (lmaxx) =  4

     K-points division:     npool     =       4
     R & G space division:  proc/nbgrp/npool/nimage =       4
     Subspace diagonalization in iterative solution of the eigenvalue problem:
     a serial algorithm will be used


     Parallelization info
     --------------------
     sticks:   dense  smooth     PW     G-vecs:    dense   smooth      PW
     Min         426     426    140                 8282     8282    1564
     Max         427     427    141                 8283     8283    1565
     Sum        1705    1705    561                33129    33129    6257

     Using Slab Decomposition



     bravais-lattice index     =            7
     lattice parameter (alat)  =      10.8471  a.u.
     unit-cell volume          =     342.6725 (a.u.)^3
     number of atoms/cell      =            2
     number of atomic types    =            1
     number of electrons       =        28.00
     number of Kohn-Sham states=           18
     kinetic-energy cutoff     =      80.0000  Ry
     charge density cutoff     =     320.0000  Ry
     scf convergence threshold =      1.0E-06
     mixing beta               =       0.4000
     number of iterations used =            8  plain     mixing
     Exchange-correlation= PBE
                           (   1   4   3   4   0   0   0)

     celldm(1)=  10.847050  celldm(2)=   0.000000  celldm(3)=   0.537000
     celldm(4)=   0.000000  celldm(5)=   0.000000  celldm(6)=   0.000000

     crystal axes: (cart. coord. in units of alat)
               a(1) = (   0.500000  -0.500000   0.268500 )  
               a(2) = (   0.500000   0.500000   0.268500 )  
               a(3) = (  -0.500000  -0.500000   0.268500 )  

     reciprocal axes: (cart. coord. in units 2 pi/alat)
               b(1) = (  1.000000 -1.000000  0.000000 )  
               b(2) = (  0.000000  1.000000  1.862197 )  
               b(3) = ( -1.000000  0.000000  1.862197 )  


     PseudoPot. # 1 for Ge read from file:
     ./Ge.upf
     MD5 check sum: 087fa14d6c89b52166990835c3b338da
     Pseudo is Norm-conserving + core correction, Zval = 14.0
     Generated using ONCVPSP code by D. R. Hamann
     Using radial grid of 1560 points,  6 beta functions with: 
                l(1) =   0
                l(2) =   0
                l(3) =   1
                l(4) =   1
                l(5) =   2
                l(6) =   2

     atomic species   valence    mass     pseudopotential
        Ge            14.00    72.63000     Ge( 1.00)

      4 Sym. Ops. (no inversion) found



   Cartesian axes

     site n.     atom                  positions (alat units)
         1           Ge  tau(   1) = (   0.0000000   0.0000000   0.0000000  )
         2           Ge  tau(   2) = (   0.0000000   0.5000000   0.1375000  )

     number of k points=   494  Gaussian smearing, width (Ry)=  0.0100

     Number of k-points >= 100: set verbosity='high' to print them.

     Dense  grid:    33129 G-vectors     FFT dimensions: (  48,  48,  48)

     Estimated max dynamical RAM per process >      44.09 MB

     Estimated total dynamical RAM >     681.12 MB

     Initial potential from superposition of free atoms

     starting charge      27.9984, renormalised to      28.0000
     Starting wfcs are   18 randomized atomic wfcs

     total cpu time spent up to now is        7.3 secs

     Self-consistent Calculation

     iteration #  1     ecut=    80.00 Ry     beta= 0.40
     Davidson diagonalization with overlap
     ethr =  1.00E-02,  avg # of iterations =  2.5

     Threshold (ethr) on eigenvalues was too large:
     Diagonalizing with lowered threshold

     Davidson diagonalization with overlap
     ethr =  1.95E-05,  avg # of iterations =  5.3

     total cpu time spent up to now is       54.5 secs

     total energy              =    -357.21587692 Ry
     estimated scf accuracy    <       0.00561004 Ry

     iteration #  2     ecut=    80.00 Ry     beta= 0.40
     Davidson diagonalization with overlap
     ethr =  2.00E-05,  avg # of iterations =  1.0

     total cpu time spent up to now is       70.1 secs

     total energy              =    -357.21600136 Ry
     estimated scf accuracy    <       0.00150129 Ry

     iteration #  3     ecut=    80.00 Ry     beta= 0.40
     Davidson diagonalization with overlap
     ethr =  5.36E-06,  avg # of iterations =  2.1

     total cpu time spent up to now is       87.9 secs

     total energy              =    -357.21618487 Ry
     estimated scf accuracy    <       0.00009704 Ry

     iteration #  4     ecut=    80.00 Ry     beta= 0.40
     Davidson diagonalization with overlap
     ethr =  3.47E-07,  avg # of iterations =  2.0

     total cpu time spent up to now is      108.2 secs

     total energy              =    -357.21619662 Ry
     estimated scf accuracy    <       0.00000789 Ry

     iteration #  5     ecut=    80.00 Ry     beta= 0.40
     Davidson diagonalization with overlap
     ethr =  2.82E-08,  avg # of iterations =  2.0

     total cpu time spent up to now is      129.0 secs

     End of self-consistent calculation

     Number of k-points >= 100: set verbosity='high' to print the bands.

     the Fermi energy is     7.8077 ev

!    total energy              =    -357.21619843 Ry
     estimated scf accuracy    <       0.00000040 Ry
     smearing contrib. (-TS)   =      -0.00083188 Ry
     internal energy E=F+TS    =    -357.21536656 Ry

     The total energy is F=E-TS. E is the sum of the following terms:
     one-electron contribution =    -172.14108902 Ry
     hartree contribution      =     103.64194235 Ry
     xc contribution           =     -86.99396433 Ry
     ewald contribution        =    -201.72225555 Ry

     convergence has been achieved in   5 iterations

     Forces acting on atoms (cartesian axes, Ry/au):

     atom    1 type  1   force =     0.00000000    0.00000000    0.00014920
     atom    2 type  1   force =     0.00000000    0.00000000   -0.00014920
     The non-local contrib.  to forces
     atom    1 type  1   force =    -0.00000000    0.00000000    0.00097545
     atom    2 type  1   force =     0.00000000    0.00000000   -0.00097190
     The ionic contribution  to forces
     atom    1 type  1   force =     0.00000000    0.00000000    0.00053059
     atom    2 type  1   force =     0.00000000    0.00000000   -0.00053059
     The local contribution  to forces
     atom    1 type  1   force =    -0.00000000    0.00000000   -0.00135065
     atom    2 type  1   force =     0.00000000    0.00000000    0.00134877
     The core correction contribution to forces
     atom    1 type  1   force =     0.00000000   -0.00000000    0.00000310
     atom    2 type  1   force =    -0.00000000   -0.00000000   -0.00000320
     The Hubbard contrib.    to forces
     atom    1 type  1   force =     0.00000000    0.00000000    0.00000000
     atom    2 type  1   force =     0.00000000    0.00000000    0.00000000
     The SCF correction term to forces
     atom    1 type  1   force =     0.00000000   -0.00000000   -0.00000755
     atom    2 type  1   force =     0.00000000   -0.00000000    0.00000947

     Total force =     0.000211     Total SCF correction =     0.000012


     Computing stress (Cartesian axis) and pressure

          total   stress  (Ry/bohr**3)                   (kbar)     P=      -99.16
  -0.00069352   0.00000000   0.00000000         -102.02        0.00        0.00
   0.00000000  -0.00069762  -0.00000000            0.00     -102.62       -0.00
   0.00000000  -0.00000000  -0.00063110            0.00       -0.00      -92.84


     Writing all to output data dir ./Ge_out/Ge_scf.save/

     init_run     :      6.56s CPU      6.96s WALL (       1 calls)
     electrons    :    114.48s CPU    121.79s WALL (       1 calls)
     forces       :      1.06s CPU      1.14s WALL (       1 calls)
     stress       :     10.07s CPU     10.20s WALL (       1 calls)

     Called by init_run:
     wfcinit      :      5.84s CPU      6.21s WALL (       1 calls)
     potinit      :      0.14s CPU      0.15s WALL (       1 calls)
     hinit0       :      0.44s CPU      0.45s WALL (       1 calls)

     Called by electrons:
     c_bands      :     98.64s CPU    104.83s WALL (       6 calls)
     sum_band     :     15.62s CPU     16.65s WALL (       6 calls)
     v_of_rho     :      0.22s CPU      0.25s WALL (       6 calls)
     mix_rho      :      0.02s CPU      0.02s WALL (       6 calls)

     Called by c_bands:
     init_us_2    :      1.74s CPU      1.86s WALL (    1860 calls)
     init_us_2:cp :      1.73s CPU      1.85s WALL (    1860 calls)
     cegterg      :     91.71s CPU     97.14s WALL (     744 calls)

     Called by *egterg:
     cdiaghg      :      2.64s CPU      2.70s WALL (    2559 calls)
     h_psi        :     85.38s CPU     90.88s WALL (    2807 calls)
     g_psi        :      0.44s CPU      0.45s WALL (    1939 calls)

     Called by h_psi:
     h_psi:calbec :      2.51s CPU      2.69s WALL (    2807 calls)
     vloc_psi     :     80.16s CPU     85.40s WALL (    2807 calls)
     add_vuspsi   :      2.32s CPU      2.37s WALL (    2807 calls)

     General routines
     calbec       :      3.14s CPU      3.36s WALL (    3427 calls)
     fft          :      0.39s CPU      0.42s WALL (      85 calls)
     ffts         :      0.01s CPU      0.01s WALL (       6 calls)
     fftw         :     84.90s CPU     90.67s WALL (   88692 calls)

     Parallel routines

     PWSCF        :   2m12.66s CPU   2m22.35s WALL


   This run was terminated on:  19:49:50  26Apr2025            

=------------------------------------------------------------------------------=
   JOB DONE.
=------------------------------------------------------------------------------=
