
     Program PWSCF v.6.8 starts on 28Apr2025 at 10:44:46 

     This program is part of the open-source Quantum ESPRESSO suite
     for quantum simulation of materials; please cite
         "P. Giannozzi et al., J. Phys.:Condens. Matter 21 395502 (2009);
         "P. Giannozzi et al., J. Phys.:Condens. Matter 29 465901 (2017);
         "P. Giannozzi et al., J. Chem. Phys. 152 154105 (2020);
          URL http://www.quantum-espresso.org", 
     in publications or presentations arising from this work. More details at
     http://www.quantum-espresso.org/quote

     Parallel version (MPI & OpenMP), running on      56 processor cores
     Number of MPI processes:                56
     Threads/MPI process:                     1

     MPI processes distributed on     1 nodes
     R & G space division:  proc/nbgrp/npool/nimage =      56
     186332 MiB available memory on the printing compute node when the environment starts
 
     Reading input from surface_relax.in
Warning: card &CELL ignored
Warning: card / ignored
Warning: card &FCP ignored
Warning: card / ignored
Warning: card &RISM ignored
Warning: card / ignored

     Current dimensions of program PWSCF are:
     Max number of different atomic species (ntypx) = 10
     Max number of k-points (npk) =  40000
     Max angular momentum in pseudopotentials (lmaxx) =  4

     gamma-point specific algorithms are used
     Found symmetry operation: I + (  0.0000  0.2500  0.0000)
     This is a supercell, fractional translations are disabled
     Message from routine setup:
     using ibrav=0 with symmetry is DISCOURAGED, use correct ibrav instead

     Subspace diagonalization in iterative solution of the eigenvalue problem:
     one sub-group per band group will be used
     scalapack distributed-memory algorithm (size of sub-group:  7*  7 procs)

 
     Parallelization info
     --------------------
     sticks:   dense  smooth     PW     G-vecs:    dense   smooth      PW
     Min         270     270     66                37598    37598    4686
     Max         272     272     68                37624    37624    4708
     Sum       15199   15199   3805              2106405  2106405  263383
 
     Using Slab Decomposition
 


     bravais-lattice index     =            0
     lattice parameter (alat)  =      30.3318  a.u.
     unit-cell volume          =   33555.7491 (a.u.)^3
     number of atoms/cell      =          128
     number of atomic types    =            1
     number of electrons       =      1792.00
     number of Kohn-Sham states=         1075
     kinetic-energy cutoff     =      60.0000  Ry
     charge density cutoff     =     240.0000  Ry
     scf convergence threshold =      1.0E-06
     mixing beta               =       0.4000
     number of iterations used =            8  plain     mixing
     energy convergence thresh.=      1.0E-04
     force convergence thresh. =      1.0E-03
     Exchange-correlation= PBE
                           (   1   4   3   4   0   0   0)
     nstep                     =           50


     celldm(1)=  30.331827  celldm(2)=   0.000000  celldm(3)=   0.000000
     celldm(4)=   0.000000  celldm(5)=   0.000000  celldm(6)=   0.000000

     crystal axes: (cart. coord. in units of alat)
               a(1) = (   1.000000   0.000000   0.000000 )  
               a(2) = (   0.500000   0.866025   0.000000 )  
               a(3) = (   0.000000   0.000000   1.388483 )  

     reciprocal axes: (cart. coord. in units 2 pi/alat)
               b(1) = (  1.000000 -0.577351  0.000000 )  
               b(2) = (  0.000000  1.154701  0.000000 )  
               b(3) = (  0.000000  0.000000  0.720210 )  


     PseudoPot. # 1 for Ge read from file:
     ./Ge.upf
     MD5 check sum: 087fa14d6c89b52166990835c3b338da
     Pseudo is Norm-conserving + core correction, Zval = 14.0
     Generated using ONCVPSP code by D. R. Hamann
     Using radial grid of 1560 points,  6 beta functions with: 
                l(1) =   0
                l(2) =   0
                l(3) =   1
                l(4) =   1
                l(5) =   2
                l(6) =   2

     atomic species   valence    mass     pseudopotential
        Ge            14.00    72.63000     Ge( 1.00)

      2 Sym. Ops. (no inversion) found



   Cartesian axes

     site n.     atom                  positions (alat units)
         1           Ge  tau(   1) = (   0.0625000   0.0360844   0.4646019  )
         2           Ge  tau(   2) = (   0.0625000   0.0360844   0.3115088  )
         3           Ge  tau(   3) = (   0.1875001   0.1082532   0.6687261  )
         4           Ge  tau(   4) = (   0.1875001   0.1082532   0.5156329  )
         5           Ge  tau(   5) = (   0.3125001   0.1804220   0.8728502  )
         6           Ge  tau(   6) = (   0.3125001   0.1804220   0.7197571  )
         7           Ge  tau(   7) = (   0.0625001   0.0360844   1.0769744  )
         8           Ge  tau(   8) = (   0.0625001   0.0360844   0.9238812  )
         9           Ge  tau(   9) = (   0.1875001   0.2525907   0.4646019  )
        10           Ge  tau(  10) = (   0.1875001   0.2525907   0.3115088  )
        11           Ge  tau(  11) = (   0.3125002   0.3247595   0.6687261  )
        12           Ge  tau(  12) = (   0.3125001   0.3247595   0.5156329  )
        13           Ge  tau(  13) = (   0.4375002   0.3969283   0.8728502  )
        14           Ge  tau(  14) = (   0.4375002   0.3969283   0.7197571  )
        15           Ge  tau(  15) = (   0.1875002   0.2525908   1.0769744  )
        16           Ge  tau(  16) = (   0.1875002   0.2525908   0.9238812  )
        17           Ge  tau(  17) = (   0.3125002   0.4690971   0.4646019  )
        18           Ge  tau(  18) = (   0.3125001   0.4690971   0.3115088  )
        19           Ge  tau(  19) = (   0.4375002   0.5412659   0.6687261  )
        20           Ge  tau(  20) = (   0.4375002   0.5412659   0.5156329  )
        21           Ge  tau(  21) = (   0.5625003   0.6134347   0.8728502  )
        22           Ge  tau(  22) = (   0.5625002   0.6134347   0.7197571  )
        23           Ge  tau(  23) = (   0.3125003   0.4690971   1.0769744  )
        24           Ge  tau(  24) = (   0.3125002   0.4690971   0.9238812  )
        25           Ge  tau(  25) = (   0.4375002   0.6856034   0.4646019  )
        26           Ge  tau(  26) = (   0.4375002   0.6856034   0.3115088  )
        27           Ge  tau(  27) = (   0.5625003   0.7577722   0.6687261  )
        28           Ge  tau(  28) = (   0.5625002   0.7577722   0.5156329  )
        29           Ge  tau(  29) = (   0.6875003   0.8299410   0.8728502  )
        30           Ge  tau(  30) = (   0.6875003   0.8299410   0.7197571  )
        31           Ge  tau(  31) = (   0.4375003   0.6856035   1.0769744  )
        32           Ge  tau(  32) = (   0.4375003   0.6856035   0.9238812  )
        33           Ge  tau(  33) = (   0.3125000   0.0360844   0.4646019  )
        34           Ge  tau(  34) = (   0.3125000   0.0360844   0.3115088  )
        35           Ge  tau(  35) = (   0.4375001   0.1082532   0.6687261  )
        36           Ge  tau(  36) = (   0.4375001   0.1082532   0.5156329  )
        37           Ge  tau(  37) = (   0.5625001   0.1804220   0.8728502  )
        38           Ge  tau(  38) = (   0.5625001   0.1804220   0.7197571  )
        39           Ge  tau(  39) = (   0.3125001   0.0360844   1.0769744  )
        40           Ge  tau(  40) = (   0.3125001   0.0360844   0.9238812  )
        41           Ge  tau(  41) = (   0.4375001   0.2525907   0.4646019  )
        42           Ge  tau(  42) = (   0.4375001   0.2525907   0.3115088  )
        43           Ge  tau(  43) = (   0.5625002   0.3247595   0.6687261  )
        44           Ge  tau(  44) = (   0.5625001   0.3247595   0.5156329  )
        45           Ge  tau(  45) = (   0.6875002   0.3969283   0.8728502  )
        46           Ge  tau(  46) = (   0.6875002   0.3969283   0.7197571  )
        47           Ge  tau(  47) = (   0.4375002   0.2525908   1.0769744  )
        48           Ge  tau(  48) = (   0.4375002   0.2525908   0.9238812  )
        49           Ge  tau(  49) = (   0.5625002   0.4690971   0.4646019  )
        50           Ge  tau(  50) = (   0.5625001   0.4690971   0.3115088  )
        51           Ge  tau(  51) = (   0.6875002   0.5412659   0.6687261  )
        52           Ge  tau(  52) = (   0.6875002   0.5412659   0.5156329  )
        53           Ge  tau(  53) = (   0.8125003   0.6134347   0.8728502  )
        54           Ge  tau(  54) = (   0.8125002   0.6134347   0.7197571  )
        55           Ge  tau(  55) = (   0.5625003   0.4690971   1.0769744  )
        56           Ge  tau(  56) = (   0.5625002   0.4690971   0.9238812  )
        57           Ge  tau(  57) = (   0.6875002   0.6856034   0.4646019  )
        58           Ge  tau(  58) = (   0.6875002   0.6856034   0.3115088  )
        59           Ge  tau(  59) = (   0.8125003   0.7577722   0.6687261  )
        60           Ge  tau(  60) = (   0.8125002   0.7577722   0.5156329  )
        61           Ge  tau(  61) = (   0.9375003   0.8299410   0.8728502  )
        62           Ge  tau(  62) = (   0.9375003   0.8299410   0.7197571  )
        63           Ge  tau(  63) = (   0.6875003   0.6856035   1.0769744  )
        64           Ge  tau(  64) = (   0.6875003   0.6856035   0.9238812  )
        65           Ge  tau(  65) = (   0.5625000   0.0360844   0.4646019  )
        66           Ge  tau(  66) = (   0.5625000   0.0360844   0.3115088  )
        67           Ge  tau(  67) = (   0.6875001   0.1082532   0.6687261  )
        68           Ge  tau(  68) = (   0.6875001   0.1082532   0.5156329  )
        69           Ge  tau(  69) = (   0.8125001   0.1804220   0.8728502  )
        70           Ge  tau(  70) = (   0.8125001   0.1804220   0.7197571  )
        71           Ge  tau(  71) = (   0.5625001   0.0360844   1.0769744  )
        72           Ge  tau(  72) = (   0.5625001   0.0360844   0.9238812  )
        73           Ge  tau(  73) = (   0.6875001   0.2525907   0.4646019  )
        74           Ge  tau(  74) = (   0.6875001   0.2525907   0.3115088  )
        75           Ge  tau(  75) = (   0.8125002   0.3247595   0.6687261  )
        76           Ge  tau(  76) = (   0.8125001   0.3247595   0.5156329  )
        77           Ge  tau(  77) = (   0.9375002   0.3969283   0.8728502  )
        78           Ge  tau(  78) = (   0.9375002   0.3969283   0.7197571  )
        79           Ge  tau(  79) = (   0.6875002   0.2525908   1.0769744  )
        80           Ge  tau(  80) = (   0.6875002   0.2525908   0.9238812  )
        81           Ge  tau(  81) = (   0.8125002   0.4690971   0.4646019  )
        82           Ge  tau(  82) = (   0.8125001   0.4690971   0.3115088  )
        83           Ge  tau(  83) = (   0.9375002   0.5412659   0.6687261  )
        84           Ge  tau(  84) = (   0.9375002   0.5412659   0.5156329  )
        85           Ge  tau(  85) = (   1.0625003   0.6134347   0.8728502  )
        86           Ge  tau(  86) = (   1.0625002   0.6134347   0.7197571  )
        87           Ge  tau(  87) = (   0.8125003   0.4690971   1.0769744  )
        88           Ge  tau(  88) = (   0.8125002   0.4690971   0.9238812  )
        89           Ge  tau(  89) = (   0.9375002   0.6856034   0.4646019  )
        90           Ge  tau(  90) = (   0.9375002   0.6856034   0.3115088  )
        91           Ge  tau(  91) = (   1.0625003   0.7577722   0.6687261  )
        92           Ge  tau(  92) = (   1.0625002   0.7577722   0.5156329  )
        93           Ge  tau(  93) = (   1.1875003   0.8299410   0.8728502  )
        94           Ge  tau(  94) = (   1.1875003   0.8299410   0.7197571  )
        95           Ge  tau(  95) = (   0.9375003   0.6856035   1.0769744  )
        96           Ge  tau(  96) = (   0.9375003   0.6856035   0.9238812  )
        97           Ge  tau(  97) = (   0.8125000   0.0360844   0.4646019  )
        98           Ge  tau(  98) = (   0.8125000   0.0360844   0.3115088  )
        99           Ge  tau(  99) = (   0.9375001   0.1082532   0.6687261  )
       100           Ge  tau( 100) = (   0.9375001   0.1082532   0.5156329  )
       101           Ge  tau( 101) = (   1.0625001   0.1804220   0.8728502  )
       102           Ge  tau( 102) = (   1.0625001   0.1804220   0.7197571  )
       103           Ge  tau( 103) = (   0.8125001   0.0360844   1.0769744  )
       104           Ge  tau( 104) = (   0.8125001   0.0360844   0.9238812  )
       105           Ge  tau( 105) = (   0.9375001   0.2525907   0.4646019  )
       106           Ge  tau( 106) = (   0.9375001   0.2525907   0.3115088  )
       107           Ge  tau( 107) = (   1.0625002   0.3247595   0.6687261  )
       108           Ge  tau( 108) = (   1.0625001   0.3247595   0.5156329  )
       109           Ge  tau( 109) = (   1.1875002   0.3969283   0.8728502  )
       110           Ge  tau( 110) = (   1.1875002   0.3969283   0.7197571  )
       111           Ge  tau( 111) = (   0.9375002   0.2525908   1.0769744  )
       112           Ge  tau( 112) = (   0.9375002   0.2525908   0.9238812  )
       113           Ge  tau( 113) = (   1.0625002   0.4690971   0.4646019  )
       114           Ge  tau( 114) = (   1.0625001   0.4690971   0.3115088  )
       115           Ge  tau( 115) = (   1.1875002   0.5412659   0.6687261  )
       116           Ge  tau( 116) = (   1.1875002   0.5412659   0.5156329  )
       117           Ge  tau( 117) = (   1.3125003   0.6134347   0.8728502  )
       118           Ge  tau( 118) = (   1.3125002   0.6134347   0.7197571  )
       119           Ge  tau( 119) = (   1.0625003   0.4690971   1.0769744  )
       120           Ge  tau( 120) = (   1.0625002   0.4690971   0.9238812  )
       121           Ge  tau( 121) = (   1.1875002   0.6856034   0.4646019  )
       122           Ge  tau( 122) = (   1.1875002   0.6856034   0.3115088  )
       123           Ge  tau( 123) = (   1.3125003   0.7577722   0.6687261  )
       124           Ge  tau( 124) = (   1.3125002   0.7577722   0.5156329  )
       125           Ge  tau( 125) = (   1.4375003   0.8299410   0.8728502  )
       126           Ge  tau( 126) = (   1.4375003   0.8299410   0.7197571  )
       127           Ge  tau( 127) = (   1.1875003   0.6856035   1.0769744  )
       128           Ge  tau( 128) = (   1.1875003   0.6856035   0.9238812  )

     number of k points=     1  Gaussian smearing, width (Ry)=  0.0100
                       cart. coord. in units 2pi/alat
        k(    1) = (   0.0000000   0.0000000   0.0000000), wk =   2.0000000

     Dense  grid:  1053203 G-vectors     FFT dimensions: ( 150, 150, 216)

     Estimated max dynamical RAM per process >     311.77 MB

     Estimated total dynamical RAM >      17.05 GB

     Initial potential from superposition of free atoms

     starting charge 1791.89467, renormalised to 1792.00000

     negative rho (up, down):  7.957E-05 0.000E+00
     Starting wfcs are 1152 randomized atomic wfcs

     total cpu time spent up to now is        6.0 secs

     Self-consistent Calculation

     iteration #  1     ecut=    60.00 Ry     beta= 0.40
     Davidson diagonalization with overlap
     ethr =  1.00E-02,  avg # of iterations =  3.0

     Threshold (ethr) on eigenvalues was too large:
     Diagonalizing with lowered threshold

     Davidson diagonalization with overlap
     ethr =  3.80E-04,  avg # of iterations =  6.0

     negative rho (up, down):  2.253E-05 0.000E+00

     total cpu time spent up to now is       44.2 secs

     total energy              =  -22855.00842794 Ry
     estimated scf accuracy    <       7.40450877 Ry

     iteration #  2     ecut=    60.00 Ry     beta= 0.40
     Davidson diagonalization with overlap
     ethr =  4.13E-04,  avg # of iterations =  8.0

     negative rho (up, down):  4.369E-06 0.000E+00

     total cpu time spent up to now is       65.5 secs

     total energy              =  -22843.29745138 Ry
     estimated scf accuracy    <     281.47786993 Ry

     iteration #  3     ecut=    60.00 Ry     beta= 0.40
     Davidson diagonalization with overlap
     ethr =  4.13E-04,  avg # of iterations = 17.0

     total cpu time spent up to now is       90.1 secs

     total energy              =  -22857.64379404 Ry
     estimated scf accuracy    <       3.01635595 Ry

     iteration #  4     ecut=    60.00 Ry     beta= 0.40
     Davidson diagonalization with overlap
     ethr =  1.68E-04,  avg # of iterations =  3.0

     total cpu time spent up to now is      104.7 secs

     total energy              =  -22857.73081674 Ry
     estimated scf accuracy    <       0.27089409 Ry

     iteration #  5     ecut=    60.00 Ry     beta= 0.40
     Davidson diagonalization with overlap
     c_bands:  4 eigenvalues not converged
     ethr =  1.51E-05,  avg # of iterations = 20.0

     total cpu time spent up to now is      125.5 secs

     total energy              =  -22857.74787955 Ry
     estimated scf accuracy    <       0.13151355 Ry

     iteration #  6     ecut=    60.00 Ry     beta= 0.40
     Davidson diagonalization with overlap
     ethr =  7.34E-06,  avg # of iterations = 15.0

     total cpu time spent up to now is      143.5 secs

     total energy              =  -22857.75995716 Ry
     estimated scf accuracy    <       0.06769325 Ry

     iteration #  7     ecut=    60.00 Ry     beta= 0.40
     Davidson diagonalization with overlap
     ethr =  3.78E-06,  avg # of iterations =  3.0

     total cpu time spent up to now is      158.0 secs

     total energy              =  -22857.76271559 Ry
     estimated scf accuracy    <       0.00673198 Ry

     iteration #  8     ecut=    60.00 Ry     beta= 0.40
     Davidson diagonalization with overlap
     ethr =  3.76E-07,  avg # of iterations =  2.0

     total cpu time spent up to now is      172.8 secs

     total energy              =  -22857.76321443 Ry
     estimated scf accuracy    <       0.00815506 Ry

     iteration #  9     ecut=    60.00 Ry     beta= 0.40
     Davidson diagonalization with overlap
     ethr =  3.76E-07,  avg # of iterations =  2.0

     total cpu time spent up to now is      187.1 secs

     total energy              =  -22857.76387772 Ry
     estimated scf accuracy    <       0.00139540 Ry

     iteration # 10     ecut=    60.00 Ry     beta= 0.40
     Davidson diagonalization with overlap
     ethr =  7.79E-08,  avg # of iterations =  2.0

     total cpu time spent up to now is      201.7 secs

     total energy              =  -22857.76398660 Ry
     estimated scf accuracy    <       0.00066648 Ry

     iteration # 11     ecut=    60.00 Ry     beta= 0.40
     Davidson diagonalization with overlap
     ethr =  3.72E-08,  avg # of iterations =  2.0

     total cpu time spent up to now is      216.0 secs

     total energy              =  -22857.76405882 Ry
     estimated scf accuracy    <       0.00023137 Ry

     iteration # 12     ecut=    60.00 Ry     beta= 0.40
     Davidson diagonalization with overlap
     ethr =  1.29E-08,  avg # of iterations =  1.0

     total cpu time spent up to now is      228.6 secs

     total energy              =  -22857.76407878 Ry
     estimated scf accuracy    <       0.00001938 Ry

     iteration # 13     ecut=    60.00 Ry     beta= 0.40
     Davidson diagonalization with overlap
     ethr =  1.08E-09,  avg # of iterations =  2.0

     total cpu time spent up to now is      243.6 secs

     total energy              =  -22857.76408149 Ry
     estimated scf accuracy    <       0.00002197 Ry

     iteration # 14     ecut=    60.00 Ry     beta= 0.40
     Davidson diagonalization with overlap
     ethr =  1.08E-09,  avg # of iterations =  2.0

     total cpu time spent up to now is      258.0 secs

     total energy              =  -22857.76408314 Ry
     estimated scf accuracy    <       0.00000523 Ry

     iteration # 15     ecut=    60.00 Ry     beta= 0.40
     Davidson diagonalization with overlap
     ethr =  2.92E-10,  avg # of iterations =  2.0

     total cpu time spent up to now is      272.6 secs

     total energy              =  -22857.76408374 Ry
     estimated scf accuracy    <       0.00000522 Ry

     iteration # 16     ecut=    60.00 Ry     beta= 0.40
     Davidson diagonalization with overlap
     ethr =  2.91E-10,  avg # of iterations =  1.0

     total cpu time spent up to now is      285.2 secs

     total energy              =  -22857.76408383 Ry
     estimated scf accuracy    <       0.00000830 Ry

     iteration # 17     ecut=    60.00 Ry     beta= 0.40
     Davidson diagonalization with overlap
     ethr =  2.91E-10,  avg # of iterations =  1.0

     total cpu time spent up to now is      297.8 secs

     End of self-consistent calculation

          k = 0.0000 0.0000 0.0000 (131692 PWs)   bands (ev):

   -21.4116 -21.4116 -21.4116 -21.4111 -21.4111 -21.4110 -21.4110 -21.4110
   -21.4110 -21.4110 -21.4109 -21.4107 -21.4106 -21.4106 -21.4106 -21.4106
   -21.4106 -21.4106 -21.4105 -21.4105 -21.4097 -21.4097 -21.4088 -21.4088
   -21.4088 -21.4088 -21.4088 -21.4088 -21.4085 -21.4085 -21.4085 -21.4085
   -21.4085 -21.4085 -21.4078 -21.4078 -21.4078 -21.4078 -21.4078 -21.4078
   -21.4069 -21.4069 -21.4069 -21.4063 -21.4063 -21.4063 -21.4062 -21.4062
   -21.4062 -21.4062 -21.4062 -21.4062 -21.4052 -21.4052 -21.4052 -21.4052
   -21.4052 -21.4052 -21.4045 -21.4045 -21.4044 -21.4044 -21.4044 -21.4044
   -21.3009 -21.3009 -21.3008 -21.3008 -21.3008 -21.3008 -21.2892 -21.2892
   -21.2892 -21.2880 -21.2880 -21.2880 -21.2880 -21.2880 -21.2880 -21.2858
   -21.2858 -21.2858 -21.2858 -21.2857 -21.2857 -21.2849 -21.2849 -21.2849
   -21.2839 -21.2839 -21.2838 -21.2838 -21.2838 -21.2838 -21.2836 -21.2836
   -21.2836 -21.2834 -21.2834 -21.2834 -21.2834 -21.2834 -21.2833 -21.2819
   -21.2819 -21.2812 -21.2812 -21.2812 -21.2812 -21.2812 -21.2812 -21.2802
   -21.2802 -21.2802 -21.2802 -21.2802 -21.2802 -21.2800 -21.2800 -21.2800
   -21.2800 -21.2800 -21.2800 -21.2789 -21.2789 -21.2788 -21.2788 -21.2788
   -21.2788 -21.2788 -21.2787 -21.2787 -21.2787 -21.2787 -21.2787 -21.2787
   -21.2787 -21.2786 -21.2786 -21.2786 -21.2786 -21.2786 -21.2786 -21.2785
   -21.2782 -21.2782 -21.2781 -21.2780 -21.2777 -21.2776 -21.2776 -21.2776
   -21.2775 -21.2775 -21.2775 -21.2775 -21.2775 -21.2774 -21.2774 -21.2773
   -21.2773 -21.2773 -21.2773 -21.2772 -21.2772 -21.2765 -21.2764 -21.2764
   -21.2764 -21.2763 -21.2763 -21.2762 -21.2761 -21.2761 -21.2761 -21.2760
   -21.2760 -21.2760 -21.2759 -21.2759 -21.2759 -21.2755 -21.2755 -21.2749
   -21.2749 -21.2749 -21.2749 -21.2749 -21.2749 -21.2737 -21.2737 -21.2737
   -21.2717 -21.2717 -21.2717 -21.2689 -21.2689 -21.2689 -21.2689 -21.2688
   -21.2688 -21.2561 -21.2561 -21.2561 -21.2561 -21.2560 -21.2560 -21.2450
   -21.2356 -21.2210 -21.2210 -21.2210 -21.2209 -21.2209 -21.2209 -21.2141
   -21.2141 -21.2089 -21.2089 -21.2089 -21.2026 -21.2026 -21.2026 -21.2026
   -21.2026 -21.2026 -21.2005 -21.2005 -21.2005 -21.2004 -21.2004 -21.2004
   -21.1996 -21.1996 -21.1996 -21.1996 -21.1996 -21.1996 -21.1962 -21.1962
   -21.1962 -21.1911 -21.1911 -21.1911 -21.1899 -21.1899 -21.1899 -21.1899
   -21.1899 -21.1899 -21.1847 -21.1847 -21.1847 -21.1847 -21.1847 -21.1847
   -21.1826 -21.1826 -21.1826 -21.1826 -21.1825 -21.1825 -21.1762 -21.1762
   -21.1694 -21.1694 -21.1694 -21.1694 -21.1694 -21.1694 -21.1664 -21.1664
   -21.1664 -21.1664 -21.1663 -21.1663 -21.1656 -21.1656 -21.1656 -21.1629
   -21.1629 -21.1614 -21.1614 -21.1613 -21.1613 -21.1613 -21.1613 -21.1601
   -21.1601 -21.1601 -21.1601 -21.1601 -21.1601 -21.1582 -21.1582 -21.1582
   -21.1528 -21.1528 -21.1528 -21.1528 -21.1528 -21.1528 -21.1448 -21.1448
   -21.1448 -21.1418 -21.1418 -21.1418 -21.1375 -21.1375 -21.1375 -21.1375
   -21.1375 -21.1375 -21.1343 -21.1343 -21.1343 -21.1343 -21.1343 -21.1343
   -21.1278 -21.1278 -21.1278 -21.1192 -21.1192 -21.1187 -21.1187 -21.1187
   -21.1187 -21.1186 -21.1186 -21.1179 -21.1179 -21.1175 -21.1175 -21.1175
   -21.1175 -21.1175 -21.1175 -21.1138 -21.1138 -21.1138 -21.1138 -21.1138
   -21.1138 -21.1113 -21.1113 -21.1113 -21.1083 -21.1083 -21.1083 -21.1083
   -21.1083 -21.1083 -21.0987 -21.0987 -21.0987 -21.0987 -21.0986 -21.0986
   -21.0940 -21.0940 -21.0940 -21.0940 -21.0940 -21.0940 -21.0933 -21.0933
   -21.0933 -21.0926 -21.0926 -21.0926 -21.0926 -21.0926 -21.0926 -21.0900
   -21.0900 -21.0900 -21.0832 -21.0832 -21.0832 -21.0832 -21.0832 -21.0832
   -21.0816 -21.0816 -21.0816 -21.0816 -21.0816 -21.0816 -21.0802 -21.0802
   -21.0802 -21.0733 -21.0733 -21.0733 -21.0733 -21.0733 -21.0733 -21.0677
   -21.0677 -21.0677 -21.0677 -21.0677 -21.0677 -21.0547 -21.0547 -21.0547
   -21.0533 -21.0533 -21.0533 -21.0532 -21.0532 -21.0532 -21.0530 -21.0530
   -21.0530 -21.0398 -21.0398 -21.0397 -21.0397 -21.0397 -21.0397 -21.0378
   -21.0378 -21.0378 -21.0378 -21.0378 -21.0378 -21.0210 -21.0210 -21.0199
   -21.0101 -20.9982 -20.9982 -20.9982 -20.9981 -20.9981 -20.9981 -20.9957
   -20.9957 -20.9957 -20.9957 -20.9957 -20.9957 -20.9946 -20.9946 -20.9946
   -20.9873 -20.9873 -20.9852 -20.9851 -20.9851 -20.9841 -20.9841 -20.9841
   -20.9841 -20.9840 -20.9840 -20.9730 -20.9730 -20.9730 -20.9730 -20.9730
   -20.9730 -20.9721 -20.9721 -20.9721 -20.9721 -20.9721 -20.9721 -20.9634
   -20.9634 -20.9634 -20.9513 -20.9513 -20.9513 -20.9513 -20.9513 -20.9512
   -20.8898 -20.8898 -20.8898 -20.8898 -20.8898 -20.8898 -20.8887 -20.8887
   -20.8886 -20.8886 -20.8886 -20.8886 -20.8749 -20.8748 -20.8748 -20.8748
   -20.8747 -20.8747 -20.8747 -20.8747 -20.8747 -20.8743 -20.8743 -20.8743
   -20.8741 -20.8741 -20.8741 -20.8741 -20.8741 -20.8741 -20.8582 -20.8582
   -20.8582 -20.8575 -20.8575 -20.8575 -20.8573 -20.8573 -20.8573 -20.8572
   -20.8572 -20.8572 -20.8561 -20.8561 -20.8561 -20.8560 -20.8560 -20.8560
   -20.8551 -20.8551 -20.8551 -20.8551 -20.8551 -20.8551 -20.8544 -20.8544
   -20.8544 -20.8544 -20.8544 -20.8544 -20.8535 -20.8535 -20.8531 -20.8531
   -20.8427 -20.8389 -20.8315 -20.8315 -20.8315 -20.8312 -20.8312 -20.8312
   -20.8310 -20.8310 -20.8310 -20.8310 -20.8309 -20.8309 -20.8302 -20.8301
   -20.8301 -20.8301 -20.8301 -20.8301 -20.8288 -20.8288 -20.8288 -20.8288
   -20.8288 -20.8288 -20.8287 -20.8287 -20.8287 -20.8287 -20.8287 -20.8287
   -20.8116 -20.8116 -20.8088 -20.8088 -20.8076 -20.8076 -20.8076 -20.8076
   -20.8076 -20.8076 -20.8070 -20.8070 -20.8070 -20.8063 -20.8063 -20.8063
   -20.8061 -20.8061 -20.8061 -20.8061 -20.8061 -20.8061 -20.8056 -20.8056
   -20.8056 -20.8056 -20.8056 -20.8056 -20.8054 -20.8054 -20.8054 -20.8054
   -20.8054 -20.8053 -20.8053 -20.8053 -20.8053 -20.8053 -20.8053 -20.8053
   -20.8052 -20.8052 -20.8052 -20.8052 -20.8051 -20.8051 -20.8051 -20.8051
   -20.8051 -20.8041 -20.8041 -20.8041 -20.7969 -20.7969 -20.7969 -20.7969
   -20.7969 -20.7968 -20.7948 -20.7948 -20.7948 -20.7948 -20.7947 -20.7947
    -8.7946  -8.2255  -8.1393  -8.1393  -8.1393  -8.1392  -8.1392  -8.1392
    -7.5845  -7.5845  -7.5844  -7.5844  -7.5844  -7.5844  -7.4891  -6.9570
    -6.9570  -6.9570  -6.9570  -6.9570  -6.9570  -6.8544  -6.8544  -6.8544
    -6.8544  -6.8543  -6.8543  -6.8035  -6.8035  -6.8035  -6.4790  -6.4790
    -6.4790  -6.4790  -6.4790  -6.4790  -6.4334  -6.4334  -6.4334  -5.8949
    -5.8949  -5.8949  -5.8383  -5.8383  -5.8383  -5.8383  -5.8383  -5.8383
    -5.1429  -5.1429  -5.1429  -5.0337  -5.0337  -5.0337  -5.0337  -5.0336
    -5.0336  -5.0242  -4.7533  -4.7518  -4.7518  -4.7518  -4.7518  -4.7518
    -4.7517  -4.4042  -4.4041  -4.4041  -4.4041  -4.4041  -4.4041  -4.2868
    -4.2868  -4.2868  -4.2225  -4.2225  -4.2225  -4.2225  -4.2225  -4.2225
    -3.7861  -3.7861  -3.7861  -3.5165  -3.5165  -3.5164  -3.5164  -3.5164
    -3.5164  -3.0823  -3.0823  -3.0823  -3.0175  -3.0175  -3.0175  -2.8939
    -2.8939  -2.8939  -2.8939  -2.8938  -2.8938  -2.7580  -2.7580  -2.7580
    -2.7580  -2.7579  -2.7579  -2.7027  -2.7027  -2.7027  -2.7027  -2.7027
    -2.7027  -2.4993  -1.5960  -1.5960  -1.5960  -1.5959  -1.5959  -1.5959
    -0.8170  -0.8170  -0.8169  -0.8169  -0.8169  -0.8169  -0.6314  -0.1186
    -0.1186  -0.1185  -0.1185  -0.1185  -0.1185  -0.0285  -0.0285  -0.0285
    -0.0285  -0.0284  -0.0284  -0.0239  -0.0239  -0.0239  -0.0239  -0.0239
    -0.0239   0.1022   0.1022   0.1023   0.1023   0.1023   0.1023   0.2243
     0.2243   0.2243   0.4519   0.4519   0.4519   0.4519   0.4519   0.4519
     0.5077   0.5077   0.5077   0.8586   0.8586   0.8587   0.9512   0.9512
     0.9512   0.9512   0.9512   0.9512   1.2493   1.2493   1.2493   1.2493
     1.2493   1.2493   1.2890   1.3843   1.3843   1.3843   1.4821   1.4821
     1.4822   1.4822   1.4822   1.4822   1.8198   1.8198   1.8198   1.9726
     1.9726   1.9726   1.9935   1.9935   1.9935   1.9935   1.9935   1.9935
     2.0369   2.0369   2.0369   2.0370   2.0370   2.0370   2.0677   2.0677
     2.0677   2.1795   2.1795   2.1795   2.1795   2.1795   2.1795   2.3562
     2.3562   2.3562   2.3905   2.3905   2.3905   2.3905   2.3905   2.3905
     2.4695   2.4695   2.5686   2.5686   2.5686   2.5686   2.5686   2.5686
     2.6778   2.6778   2.6778   2.6778   2.6778   2.6778   2.7974   2.7974
     2.7974   2.9017   2.9017   2.9163   2.9163   2.9163   2.9163   2.9163
     2.9163   2.9789   2.9789   2.9789   2.9789   2.9789   2.9789   3.1212
     3.3951   3.3951   3.5974   3.5974   3.5974   3.5974   3.5974   3.5974
     3.9023   3.9023   3.9024   3.9024   3.9024   3.9024   3.9903   4.0250
     4.0250   4.0250   4.0250   4.0250   4.0250   4.1271   4.1271   4.1272
     4.1272   4.1272   4.1272   4.3592   4.3870   4.6663   4.6663   4.6663
     4.9596   4.9596   4.9596   5.1031   5.1031   5.1031   5.1175   5.1175
     5.1175   5.1175   5.1175   5.1176   5.1690   5.1690   5.1690   5.2379
     5.2379   5.2379   5.3193   5.3193   5.3193   5.3193   5.3193   5.3193
     5.5554   5.5554   5.5554   5.5554   5.5554   5.5554   5.5710   5.5710
     5.5710   5.5710   5.5711   5.5711   5.6389   5.6389   5.6389   5.6389
     5.6389   5.6389   5.7007   5.7007   5.7007   5.8105   5.8105   6.0125
     6.0125   6.2181   6.2181   6.2182   6.2182   6.2182   6.2182   6.2955
     6.2955   6.2955   6.2955   6.2955   6.2955   6.3185   6.7077   6.7077
     6.7077   6.7077   6.7077   6.7077   6.7215   6.7215   6.7215   6.7215
     6.7215   6.7215   7.0446   7.0598   7.0598   7.1013   7.1013   7.1013
     7.1013   7.1013   7.1013   7.2302   7.2302   7.2302   7.5202   7.5202
     7.5202   7.5202   7.5202   7.5202   7.5547   7.5547   7.5547   7.5547
     7.5547   7.5547   7.5752   7.5752   7.5752   7.5964   7.5964   7.6373
     7.6373   7.9663   7.9663   7.9663   7.9663   7.9664   7.9664   7.9999
     7.9999   7.9999   8.0289   8.0289   8.0289   8.0289   8.0289   8.0289
     8.0668   8.0668   8.0668   8.0668   8.0669   8.0669   8.3178   8.3178
     8.3178   8.3178   8.3178   8.3179   8.3769   8.3769   8.3770   8.4183
     8.4183   8.4184   8.4184   8.4184   8.4184   8.4566   8.5033   8.6565
     8.6621   8.6630   8.6631

     the Fermi energy is     3.2448 ev

!    total energy              =  -22857.76408408 Ry
     estimated scf accuracy    <       0.00000044 Ry
     smearing contrib. (-TS)   =      -0.00670428 Ry
     internal energy E=F+TS    =  -22857.75737980 Ry

     The total energy is F=E-TS. E is the sum of the following terms:
     one-electron contribution =  -68542.26643962 Ry
     hartree contribution      =   35106.49019311 Ry
     xc contribution           =   -5576.49539105 Ry
     ewald contribution        =   16154.51425776 Ry

     convergence has been achieved in  17 iterations

     Forces acting on atoms (cartesian axes, Ry/au):

     atom    1 type  1   force =     0.00000518    0.00000299   -0.01029856
     atom    2 type  1   force =    -0.00000163   -0.00000094   -0.01357390
     atom    3 type  1   force =    -0.00000994   -0.00000574   -0.00746902
     atom    4 type  1   force =    -0.00000969   -0.00000560    0.01357636
     atom    5 type  1   force =     0.00001072    0.00000619   -0.01358479
     atom    6 type  1   force =     0.00001102    0.00000636    0.00743526
     atom    7 type  1   force =    -0.00000177   -0.00000102    0.01360373
     atom    8 type  1   force =     0.00000112    0.00000065    0.01031940
     atom    9 type  1   force =     0.00001362   -0.00000851   -0.01030161
     atom   10 type  1   force =     0.00000215   -0.00000245   -0.01357295
     atom   11 type  1   force =    -0.00000807    0.00001907   -0.00747084
     atom   12 type  1   force =    -0.00000816    0.00001953    0.01358031
     atom   13 type  1   force =     0.00001176   -0.00001407   -0.01358592
     atom   14 type  1   force =     0.00001327   -0.00001496    0.00743284
     atom   15 type  1   force =    -0.00000099   -0.00000527    0.01360890
     atom   16 type  1   force =     0.00000559   -0.00001766    0.01030713
     atom   17 type  1   force =     0.00000793    0.00000907   -0.01030998
     atom   18 type  1   force =     0.00000306    0.00000698   -0.01356980
     atom   19 type  1   force =    -0.00000815   -0.00000429   -0.00747034
     atom   20 type  1   force =    -0.00001329   -0.00000573    0.01357750
     atom   21 type  1   force =     0.00000798    0.00001110   -0.01357874
     atom   22 type  1   force =     0.00000749    0.00000504    0.00743343
     atom   23 type  1   force =     0.00000323    0.00000564    0.01360844
     atom   24 type  1   force =     0.00001193    0.00001013    0.01030703
     atom   25 type  1   force =     0.00000198   -0.00002085   -0.01030501
     atom   26 type  1   force =    -0.00000037   -0.00000470   -0.01356870
     atom   27 type  1   force =    -0.00001313    0.00001321   -0.00747059
     atom   28 type  1   force =    -0.00001127    0.00001456    0.01357705
     atom   29 type  1   force =     0.00000506   -0.00002087   -0.01358116
     atom   30 type  1   force =     0.00000885   -0.00001956    0.00743770
     atom   31 type  1   force =     0.00000432   -0.00000030    0.01360172
     atom   32 type  1   force =     0.00001183   -0.00000869    0.01031513
     atom   33 type  1   force =    -0.00000056    0.00001605   -0.01030161
     atom   34 type  1   force =    -0.00000104    0.00000309   -0.01357295
     atom   35 type  1   force =     0.00001248   -0.00001652   -0.00747084
     atom   36 type  1   force =     0.00001283   -0.00001684    0.01358031
     atom   37 type  1   force =    -0.00000631    0.00001722   -0.01358592
     atom   38 type  1   force =    -0.00000632    0.00001898    0.00743284
     atom   39 type  1   force =    -0.00000506    0.00000177    0.01360890
     atom   40 type  1   force =    -0.00001250    0.00001368    0.01030713
     atom   41 type  1   force =    -0.00000570   -0.00000329   -0.01030582
     atom   42 type  1   force =     0.00000209    0.00000121   -0.01357044
     atom   43 type  1   force =     0.00001282    0.00000740   -0.00747055
     atom   44 type  1   force =     0.00000775    0.00000447    0.01358071
     atom   45 type  1   force =    -0.00000991   -0.00000572   -0.01357973
     atom   46 type  1   force =    -0.00001286   -0.00000742    0.00743155
     atom   47 type  1   force =    -0.00000017   -0.00000010    0.01360986
     atom   48 type  1   force =    -0.00000622   -0.00000359    0.01030184
     atom   49 type  1   force =    -0.00001330    0.00001296   -0.01030672
     atom   50 type  1   force =    -0.00000413    0.00000371   -0.01356907
     atom   51 type  1   force =     0.00000726   -0.00002041   -0.00747003
     atom   52 type  1   force =     0.00001081   -0.00001610    0.01358217
     atom   53 type  1   force =    -0.00001185    0.00001507   -0.01358334
     atom   54 type  1   force =    -0.00000984    0.00001549    0.00743393
     atom   55 type  1   force =    -0.00000094    0.00000744    0.01360530
     atom   56 type  1   force =    -0.00000746    0.00002188    0.01030742
     atom   57 type  1   force =    -0.00000668   -0.00001248   -0.01030050
     atom   58 type  1   force =    -0.00000407   -0.00000403   -0.01357146
     atom   59 type  1   force =     0.00001107    0.00000420   -0.00747049
     atom   60 type  1   force =     0.00001206    0.00000461    0.01357692
     atom   61 type  1   force =    -0.00000575   -0.00000679   -0.01358546
     atom   62 type  1   force =    -0.00000748   -0.00000687    0.00743304
     atom   63 type  1   force =    -0.00000643   -0.00000211    0.01360411
     atom   64 type  1   force =    -0.00001875   -0.00000456    0.01031368
     atom   65 type  1   force =     0.00001182    0.00000234   -0.01030998
     atom   66 type  1   force =     0.00000757   -0.00000084   -0.01356980
     atom   67 type  1   force =    -0.00000779   -0.00000492   -0.00747034
     atom   68 type  1   force =    -0.00001160   -0.00000864    0.01357750
     atom   69 type  1   force =     0.00001360    0.00000136   -0.01357874
     atom   70 type  1   force =     0.00000811    0.00000396    0.00743343
     atom   71 type  1   force =     0.00000650   -0.00000002    0.01360844
     atom   72 type  1   force =     0.00001473    0.00000527    0.01030703
     atom   73 type  1   force =     0.00000457   -0.00001800   -0.01030672
     atom   74 type  1   force =     0.00000115   -0.00000543   -0.01356907
     atom   75 type  1   force =    -0.00001405    0.00001650   -0.00747003
     atom   76 type  1   force =    -0.00000854    0.00001741    0.01358217
     atom   77 type  1   force =     0.00000712   -0.00001779   -0.01358334
     atom   78 type  1   force =     0.00000849   -0.00001626    0.00743393
     atom   79 type  1   force =     0.00000597   -0.00000453    0.01360530
     atom   80 type  1   force =     0.00001522   -0.00001740    0.01030742
     atom   81 type  1   force =     0.00001174    0.00000678   -0.01030462
     atom   82 type  1   force =     0.00000260    0.00000150   -0.01357072
     atom   83 type  1   force =    -0.00000994   -0.00000574   -0.00746831
     atom   84 type  1   force =    -0.00000968   -0.00000559    0.01357922
     atom   85 type  1   force =     0.00001245    0.00000719   -0.01358353
     atom   86 type  1   force =     0.00001049    0.00000605    0.00743433
     atom   87 type  1   force =     0.00000217    0.00000126    0.01360540
     atom   88 type  1   force =     0.00000432    0.00000250    0.01031128
     atom   89 type  1   force =     0.00001572   -0.00001516   -0.01030703
     atom   90 type  1   force =     0.00000672   -0.00000508   -0.01356998
     atom   91 type  1   force =    -0.00000904    0.00001726   -0.00747006
     atom   92 type  1   force =    -0.00000804    0.00001785    0.01357933
     atom   93 type  1   force =     0.00001416   -0.00001816   -0.01358419
     atom   94 type  1   force =     0.00001251   -0.00001675    0.00743339
     atom   95 type  1   force =     0.00000143   -0.00000605    0.01360801
     atom   96 type  1   force =     0.00000904   -0.00001706    0.01030537
     atom   97 type  1   force =    -0.00001707    0.00001214   -0.01030501
     atom   98 type  1   force =    -0.00000426    0.00000203   -0.01356870
     atom   99 type  1   force =     0.00000488   -0.00001798   -0.00747059
     atom  100 type  1   force =     0.00000697   -0.00001704    0.01357705
     atom  101 type  1   force =    -0.00001555    0.00001482   -0.01358116
     atom  102 type  1   force =    -0.00001251    0.00001744    0.00743770
     atom  103 type  1   force =     0.00000190    0.00000389    0.01360172
     atom  104 type  1   force =    -0.00000161    0.00001458    0.01031513
     atom  105 type  1   force =    -0.00001414    0.00000046   -0.01030050
     atom  106 type  1   force =    -0.00000552   -0.00000151   -0.01357146
     atom  107 type  1   force =     0.00000917    0.00000749   -0.00747049
     atom  108 type  1   force =     0.00001002    0.00000814    0.01357692
     atom  109 type  1   force =    -0.00000875   -0.00000158   -0.01358546
     atom  110 type  1   force =    -0.00000969   -0.00000304    0.00743304
     atom  111 type  1   force =    -0.00000504   -0.00000451    0.01360411
     atom  112 type  1   force =    -0.00001333   -0.00001396    0.01031368
     atom  113 type  1   force =    -0.00000527    0.00002119   -0.01030703
     atom  114 type  1   force =    -0.00000103    0.00000836   -0.01356998
     atom  115 type  1   force =     0.00001043   -0.00001646   -0.00747006
     atom  116 type  1   force =     0.00001144   -0.00001588    0.01357933
     atom  117 type  1   force =    -0.00000865    0.00002134   -0.01358419
     atom  118 type  1   force =    -0.00000825    0.00001921    0.00743339
     atom  119 type  1   force =    -0.00000452    0.00000426    0.01360801
     atom  120 type  1   force =    -0.00001025    0.00001636    0.01030537
     atom  121 type  1   force =    -0.00001077   -0.00000622   -0.01031070
     atom  122 type  1   force =    -0.00000267   -0.00000154   -0.01356702
     atom  123 type  1   force =     0.00001067    0.00000616   -0.00747162
     atom  124 type  1   force =     0.00000588    0.00000340    0.01357572
     atom  125 type  1   force =    -0.00001109   -0.00000640   -0.01357886
     atom  126 type  1   force =    -0.00001489   -0.00000860    0.00743631
     atom  127 type  1   force =     0.00000155    0.00000090    0.01360691
     atom  128 type  1   force =    -0.00000503   -0.00000291    0.01030853

     Total force =     0.130336     Total SCF correction =     0.003878

     BFGS Geometry Optimization
     Energy error            =      0.0E+00 Ry
     Gradient error          =      1.4E-02 Ry/Bohr

     number of scf cycles    =   1
     number of bfgs steps    =   0

     energy             new  =  -22857.7640840828 Ry

     new trust radius        =       0.0136098600 bohr
     new conv_thr            =       0.0000010000 Ry


ATOMIC_POSITIONS (angstrom)
Ge            1.0031853401        0.5791890226        7.4518342651
Ge            1.0031813265        0.5791868822        4.9928169997
Ge            3.0095421269        1.7375592234       10.7297102937
Ge            3.0095418507        1.7375592407        8.2835630025
Ge            5.0159178473        2.8959403554       14.0028526722
Ge            5.0159176022        2.8959403907       11.5566919765
Ge            1.0031832845        0.5791871282       17.2936189242
Ge            1.0031844082        0.5791879539       14.8345969021
Ge            3.0095546909        4.0543071655        7.4518326483
Ge            3.0095482184        4.0543103194        4.9928175063
Ge            5.0159080015        5.2126965829       10.7297093344
Ge            5.0159075472        5.2126967712        8.2835650966
Ge            7.0222832839        6.3710538653       14.0028520777
Ge            7.0222836786        6.3710533370       11.5566906983
Ge            3.0095485807        4.0543091124       17.2936216605
Ge            3.0095516611        4.0543024966       14.8345904092
Ge            5.0159165685        7.5294407029        7.4518282198
Ge            5.0159135826        7.5294395409        4.9928191700
Ge            7.0222728443        8.6878084538       10.7297095971
Ge            7.0222697221        8.6878076371        8.2835636088
Ge            9.0286461706        9.8461914183       14.0028558773
Ge            9.0286455049        9.8461881570       11.5566910072
Ge            5.0159157053        7.5294391168       17.2936214167
Ge            5.0159199001        7.5294414340       14.8345903548
Ge            7.0222783069       11.0045491005        7.4518308524
Ge            7.0222766573       11.0045575908        4.9928197525
Ge            9.0286350966       12.1629419499       10.7297094643
Ge            9.0286356748       12.1629426036        8.2835633704
Ge           11.0350095113       13.3212987312       14.0028545971
Ge           11.0350111118       13.3212993720       11.5566932710
Ge            7.0222811677       11.0045602088       17.2936178596
Ge            7.0222847328       11.0045557120       14.8345946424
Ge            5.0159101548        0.5791959333        7.4518326483
Ge            5.0159094967        0.5791890163        4.9928175063
Ge            7.0222818457        1.7375535153       10.7297093344
Ge            7.0222816285        1.7375532930        8.2835650966
Ge            9.0286366926        2.8959461928       14.0028520777
Ge            9.0286362792        2.8959470640       11.5566906983
Ge            5.0159093986        0.5791886070       17.2936216605
Ge            5.0159050562        0.5791948479       14.8345904092
Ge            7.0222723248        4.0543099304        7.4518304252
Ge            7.0222760407        4.0543122527        4.9928188324
Ge            9.0286469109        5.2126904075       10.7297094857
Ge            9.0286438239        5.2126888021        8.2835653045
Ge           11.0349996753        6.3710582859       14.0028553498
Ge           11.0349977074        6.3710573266       11.5566900144
Ge            7.0222768718        4.0543118480       17.2936221668
Ge            7.0222732635        4.0543099416       14.8345876085
Ge            9.0286331903        7.5294427609        7.4518299440
Ge            9.0286376350        7.5294378086        4.9928195578
Ge           11.0350088583        8.6877999223       10.7297097628
Ge           11.0350103310        8.6878021449        8.2835660783
Ge           13.0413635344        9.8461935181       14.0028534393
Ge           13.0413641934        9.8461936821       11.5566912753
Ge            9.0286413543        7.5294400690       17.2936197526
Ge            9.0286374973        7.5294476525       14.8345905652
Ge           11.0350015811       11.0045535331        7.4518332372
Ge           11.0350025534       11.0045579483        4.9928182948
Ge           13.0413757604       12.1629371806       10.7297095205
Ge           13.0413758774       12.1629373398        8.2835633004
Ge           15.0477316508       13.3213061837       14.0028523178
Ge           15.0477303280       13.3213060870       11.5566908025
Ge           11.0350033337       11.0045592480       17.2936191236
Ge           11.0349964071       11.0045578935       14.8345938746
Ge            9.0286445651        0.5791886749        7.4518282198
Ge            9.0286419126        0.5791869353        4.9928191700
Ge           11.0349989747        1.7375596580       10.7297095971
Ge           11.0349965531        1.7375576276        8.2835636088
Ge           13.0413750850        2.8959378004       14.0028558773
Ge           13.0413717746        2.8959391198       11.5566910072
Ge            9.0286433726        0.5791876590       17.2936214167
Ge            9.0286473235        0.5791903986       14.8345903548
Ge           11.0350056167        4.0543021488        7.4518299440
Ge           11.0350033970        4.0543087395        4.9928195578
Ge           13.0413605518        5.2126952208       10.7297097628
Ge           13.0413630599        5.2126956502        8.2835660783
Ge           15.0477365440        6.3710518960       14.0028534393
Ge           15.0477368624        6.3710526501       11.5566912753
Ge           11.0350079803        4.0543095037       17.2936197526
Ge           11.0350124660        4.0543026369       14.8345905652
Ge           13.0413742968        7.5294394911        7.4518310562
Ge           13.0413690544        7.5294366412        4.9928186835
Ge           15.0477276102        8.6878076864       10.7297106720
Ge           15.0477273416        8.6878077082        8.2835645200
Ge           17.0541042493        9.8461893489       14.0028533430
Ge           17.0541028046        9.8461886916       11.5566914846
Ge           13.0413708568        7.5294367974       17.2936198068
Ge           13.0413715884        7.5294373967       14.8345926047
Ge           15.0477412866       11.0045521151        7.4518297801
Ge           15.0477361222       11.0045573933        4.9928190781
Ge           17.0540929778       12.1629440909       10.7297097439
Ge           17.0540931014       12.1629443448        8.2835645752
Ge           19.0604700387       13.3213001672       14.0028529905
Ge           19.0604687595       13.3213008559       11.5566909887
Ge           15.0477353493       11.0045571658       17.2936211879
Ge           15.0477389732       11.0045512802       14.8345894787
Ge           13.0413571340        0.5791938657        7.4518308524
Ge           13.0413635087        0.5791884573        4.9928197525
Ge           15.0477335365        1.7375527445       10.7297094643
Ge           15.0477342385        1.7375531838        8.2835633704
Ge           17.0540875157        2.8959449213       14.0028545971
Ge           17.0540887176        2.8959462521       11.5566932710
Ge           13.0413687971        0.5791897277       17.2936178596
Ge           13.0413665322        0.5791953290       14.8345946424
Ge           15.0477235683        4.0543119134        7.4518332372
Ge           15.0477277249        4.0543108132        4.9928182948
Ge           17.0541006966        5.2126904531       10.7297095205
Ge           17.0541007398        5.2126907403        8.2835633004
Ge           19.0604559980        6.3710604764       14.0028523178
Ge           19.0604550996        6.3710596445       11.5566908025
Ge           15.0477300065        4.0543095126       17.2936191236
Ge           15.0477252172        4.0543044564       14.8345938746
Ge           17.0540931516        7.5294471165        7.4518297801
Ge           17.0540949873        7.5294402702        4.9928190781
Ge           19.0604662483        8.6878020168       10.7297097439
Ge           19.0604663768        8.6878022622        8.2835645752
Ge           21.0668209402        9.8461968377       14.0028529905
Ge           21.0668207437        9.8461956507       11.5566909887
Ge           17.0540951696        7.5294383880       17.2936211879
Ge           17.0540917314        7.5294447344       14.8345894787
Ge           19.0604551252       11.0045568445        7.4518278420
Ge           19.0604590062       11.0045592621        4.9928206396
Ge           21.0668312600       12.1629382158       10.7297089214
Ge           21.0668283217       12.1629366963        8.2835626641
Ge           23.0731845355       13.3213063892       14.0028558126
Ge           23.0731821197       13.3213051713       11.5566925353
Ge           19.0604632712       11.0045608401       17.2936206069
Ge           19.0604593804       11.0045587705       14.8345911519



     Writing output data file ./out/ge.save/
     NEW-OLD atomic charge density approx. for the potential

     total cpu time spent up to now is      303.1 secs

     Self-consistent Calculation

     iteration #  1     ecut=    60.00 Ry     beta= 0.40
     Davidson diagonalization with overlap
     ethr =  1.00E-06,  avg # of iterations =  4.0

     Threshold (ethr) on eigenvalues was too large:
     Diagonalizing with lowered threshold

     Davidson diagonalization with overlap
     ethr =  6.02E-08,  avg # of iterations =  4.0

     total cpu time spent up to now is      351.4 secs

     total energy              =  -22857.77879091 Ry
     estimated scf accuracy    <       0.00106302 Ry

     iteration #  2     ecut=    60.00 Ry     beta= 0.40
     Davidson diagonalization with overlap
     ethr =  5.93E-08,  avg # of iterations =  3.0

     total cpu time spent up to now is      368.0 secs

     total energy              =  -22857.77831659 Ry
     estimated scf accuracy    <       0.01130148 Ry

     iteration #  3     ecut=    60.00 Ry     beta= 0.40
     Davidson diagonalization with overlap
     ethr =  5.93E-08,  avg # of iterations =  2.0

     total cpu time spent up to now is      382.8 secs

     total energy              =  -22857.77910599 Ry
     estimated scf accuracy    <       0.00058256 Ry

     iteration #  4     ecut=    60.00 Ry     beta= 0.40
     Davidson diagonalization with overlap
     ethr =  3.25E-08,  avg # of iterations =  2.0

     total cpu time spent up to now is      397.3 secs

     total energy              =  -22857.77911401 Ry
     estimated scf accuracy    <       0.00152431 Ry

     iteration #  5     ecut=    60.00 Ry     beta= 0.40
     Davidson diagonalization with overlap
     ethr =  3.25E-08,  avg # of iterations =  2.0

     total cpu time spent up to now is      411.6 secs

     total energy              =  -22857.77921158 Ry
     estimated scf accuracy    <       0.00004640 Ry

     iteration #  6     ecut=    60.00 Ry     beta= 0.40
     Davidson diagonalization with overlap
     ethr =  2.59E-09,  avg # of iterations =  2.0

     total cpu time spent up to now is      426.3 secs

     total energy              =  -22857.77921480 Ry
     estimated scf accuracy    <       0.00001438 Ry

     iteration #  7     ecut=    60.00 Ry     beta= 0.40
     Davidson diagonalization with overlap
     ethr =  8.02E-10,  avg # of iterations =  2.0

     total cpu time spent up to now is      441.0 secs

     total energy              =  -22857.77921672 Ry
     estimated scf accuracy    <       0.00002212 Ry

     iteration #  8     ecut=    60.00 Ry     beta= 0.40
     Davidson diagonalization with overlap
     ethr =  8.02E-10,  avg # of iterations =  2.0

     total cpu time spent up to now is      455.3 secs

     total energy              =  -22857.77921822 Ry
     estimated scf accuracy    <       0.00000420 Ry

     iteration #  9     ecut=    60.00 Ry     beta= 0.40
     Davidson diagonalization with overlap
     ethr =  2.34E-10,  avg # of iterations =  2.0

     total cpu time spent up to now is      469.6 secs

     End of self-consistent calculation

          k = 0.0000 0.0000 0.0000 (131692 PWs)   bands (ev):

   -21.4177 -21.4177 -21.4177 -21.4174 -21.4173 -21.4172 -21.4172 -21.4172
   -21.4172 -21.4171 -21.4171 -21.4170 -21.4170 -21.4170 -21.4170 -21.4169
   -21.4169 -21.4169 -21.4169 -21.4169 -21.4160 -21.4160 -21.4150 -21.4150
   -21.4149 -21.4149 -21.4149 -21.4149 -21.4149 -21.4149 -21.4148 -21.4148
   -21.4148 -21.4148 -21.4141 -21.4140 -21.4140 -21.4140 -21.4140 -21.4140
   -21.4131 -21.4131 -21.4131 -21.4126 -21.4126 -21.4126 -21.4126 -21.4125
   -21.4125 -21.4125 -21.4125 -21.4124 -21.4115 -21.4115 -21.4114 -21.4114
   -21.4114 -21.4114 -21.4107 -21.4107 -21.4107 -21.4107 -21.4106 -21.4106
   -21.2946 -21.2946 -21.2946 -21.2946 -21.2945 -21.2945 -21.2880 -21.2880
   -21.2880 -21.2879 -21.2879 -21.2879 -21.2879 -21.2878 -21.2878 -21.2878
   -21.2878 -21.2878 -21.2878 -21.2878 -21.2878 -21.2877 -21.2877 -21.2877
   -21.2876 -21.2876 -21.2876 -21.2875 -21.2875 -21.2869 -21.2868 -21.2868
   -21.2866 -21.2866 -21.2865 -21.2865 -21.2865 -21.2865 -21.2857 -21.2857
   -21.2857 -21.2857 -21.2856 -21.2856 -21.2847 -21.2847 -21.2847 -21.2847
   -21.2847 -21.2847 -21.2846 -21.2845 -21.2845 -21.2845 -21.2845 -21.2844
   -21.2843 -21.2842 -21.2842 -21.2842 -21.2841 -21.2841 -21.2841 -21.2841
   -21.2840 -21.2831 -21.2830 -21.2830 -21.2828 -21.2828 -21.2827 -21.2821
   -21.2821 -21.2821 -21.2821 -21.2821 -21.2820 -21.2820 -21.2820 -21.2820
   -21.2819 -21.2819 -21.2819 -21.2813 -21.2813 -21.2813 -21.2812 -21.2812
   -21.2812 -21.2811 -21.2811 -21.2810 -21.2810 -21.2810 -21.2809 -21.2809
   -21.2808 -21.2808 -21.2804 -21.2804 -21.2803 -21.2803 -21.2802 -21.2802
   -21.2802 -21.2799 -21.2799 -21.2798 -21.2798 -21.2797 -21.2797 -21.2780
   -21.2780 -21.2780 -21.2780 -21.2780 -21.2780 -21.2756 -21.2756 -21.2756
   -21.2756 -21.2756 -21.2756 -21.2737 -21.2737 -21.2737 -21.2708 -21.2708
   -21.2696 -21.2696 -21.2695 -21.2670 -21.2670 -21.2670 -21.2670 -21.2670
   -21.2670 -21.2532 -21.2532 -21.2532 -21.2531 -21.2531 -21.2531 -21.2422
   -21.2342 -21.2168 -21.2167 -21.2167 -21.2167 -21.2167 -21.2167 -21.2080
   -21.2080 -21.2034 -21.2034 -21.2034 -21.1923 -21.1923 -21.1923 -21.1922
   -21.1922 -21.1922 -21.1900 -21.1900 -21.1900 -21.1900 -21.1900 -21.1900
   -21.1857 -21.1857 -21.1856 -21.1856 -21.1856 -21.1856 -21.1847 -21.1847
   -21.1847 -21.1826 -21.1826 -21.1826 -21.1826 -21.1826 -21.1826 -21.1777
   -21.1777 -21.1777 -21.1760 -21.1760 -21.1760 -21.1760 -21.1760 -21.1760
   -21.1717 -21.1717 -21.1717 -21.1716 -21.1716 -21.1716 -21.1638 -21.1638
   -21.1587 -21.1587 -21.1587 -21.1587 -21.1586 -21.1586 -21.1574 -21.1574
   -21.1574 -21.1574 -21.1574 -21.1574 -21.1567 -21.1567 -21.1567 -21.1525
   -21.1525 -21.1525 -21.1525 -21.1525 -21.1525 -21.1512 -21.1512 -21.1499
   -21.1499 -21.1499 -21.1498 -21.1498 -21.1498 -21.1498 -21.1498 -21.1497
   -21.1421 -21.1421 -21.1421 -21.1421 -21.1421 -21.1421 -21.1365 -21.1365
   -21.1365 -21.1294 -21.1294 -21.1294 -21.1294 -21.1293 -21.1293 -21.1287
   -21.1287 -21.1287 -21.1261 -21.1261 -21.1261 -21.1261 -21.1261 -21.1261
   -21.1164 -21.1164 -21.1164 -21.1096 -21.1096 -21.1096 -21.1096 -21.1096
   -21.1096 -21.1071 -21.1071 -21.1069 -21.1069 -21.1069 -21.1069 -21.1069
   -21.1069 -21.1056 -21.1056 -21.1032 -21.1032 -21.1032 -21.1032 -21.1032
   -21.1032 -21.1029 -21.1029 -21.1029 -21.0977 -21.0977 -21.0976 -21.0976
   -21.0976 -21.0976 -21.0873 -21.0873 -21.0873 -21.0873 -21.0873 -21.0873
   -21.0823 -21.0823 -21.0823 -21.0823 -21.0823 -21.0823 -21.0823 -21.0823
   -21.0823 -21.0823 -21.0823 -21.0823 -21.0809 -21.0809 -21.0809 -21.0781
   -21.0781 -21.0781 -21.0708 -21.0708 -21.0708 -21.0708 -21.0708 -21.0708
   -21.0697 -21.0697 -21.0697 -21.0697 -21.0697 -21.0697 -21.0689 -21.0689
   -21.0689 -21.0635 -21.0635 -21.0635 -21.0635 -21.0634 -21.0634 -21.0575
   -21.0575 -21.0575 -21.0575 -21.0575 -21.0575 -21.0477 -21.0477 -21.0477
   -21.0464 -21.0464 -21.0464 -21.0458 -21.0458 -21.0458 -21.0458 -21.0458
   -21.0458 -21.0332 -21.0332 -21.0332 -21.0332 -21.0332 -21.0332 -21.0290
   -21.0290 -21.0290 -21.0290 -21.0290 -21.0290 -21.0161 -21.0161 -21.0067
   -20.9989 -20.9886 -20.9886 -20.9886 -20.9886 -20.9886 -20.9885 -20.9872
   -20.9872 -20.9871 -20.9871 -20.9871 -20.9871 -20.9863 -20.9863 -20.9863
   -20.9825 -20.9825 -20.9780 -20.9780 -20.9780 -20.9762 -20.9762 -20.9762
   -20.9762 -20.9761 -20.9761 -20.9679 -20.9679 -20.9679 -20.9678 -20.9678
   -20.9678 -20.9665 -20.9665 -20.9665 -20.9665 -20.9665 -20.9665 -20.9593
   -20.9593 -20.9593 -20.9478 -20.9478 -20.9478 -20.9478 -20.9477 -20.9477
   -20.8784 -20.8784 -20.8783 -20.8783 -20.8783 -20.8783 -20.8773 -20.8773
   -20.8772 -20.8772 -20.8772 -20.8772 -20.8640 -20.8640 -20.8640 -20.8636
   -20.8636 -20.8636 -20.8636 -20.8636 -20.8636 -20.8634 -20.8634 -20.8634
   -20.8631 -20.8631 -20.8631 -20.8631 -20.8631 -20.8631 -20.8475 -20.8475
   -20.8475 -20.8471 -20.8471 -20.8471 -20.8464 -20.8464 -20.8463 -20.8463
   -20.8463 -20.8463 -20.8451 -20.8451 -20.8451 -20.8451 -20.8450 -20.8450
   -20.8445 -20.8445 -20.8444 -20.8444 -20.8444 -20.8444 -20.8439 -20.8439
   -20.8439 -20.8439 -20.8438 -20.8438 -20.8423 -20.8423 -20.8420 -20.8420
   -20.8332 -20.8293 -20.8213 -20.8213 -20.8213 -20.8210 -20.8210 -20.8210
   -20.8207 -20.8207 -20.8207 -20.8207 -20.8206 -20.8206 -20.8203 -20.8203
   -20.8203 -20.8202 -20.8202 -20.8202 -20.8190 -20.8190 -20.8190 -20.8189
   -20.8189 -20.8189 -20.8187 -20.8187 -20.8186 -20.8186 -20.8186 -20.8186
   -20.8007 -20.8007 -20.7980 -20.7980 -20.7979 -20.7979 -20.7979 -20.7969
   -20.7969 -20.7969 -20.7969 -20.7969 -20.7969 -20.7964 -20.7964 -20.7963
   -20.7963 -20.7963 -20.7963 -20.7963 -20.7963 -20.7963 -20.7962 -20.7962
   -20.7962 -20.7962 -20.7962 -20.7962 -20.7961 -20.7961 -20.7961 -20.7961
   -20.7961 -20.7960 -20.7959 -20.7959 -20.7959 -20.7954 -20.7954 -20.7954
   -20.7953 -20.7953 -20.7953 -20.7950 -20.7950 -20.7950 -20.7950 -20.7950
   -20.7950 -20.7936 -20.7936 -20.7936 -20.7870 -20.7870 -20.7869 -20.7869
   -20.7869 -20.7869 -20.7849 -20.7849 -20.7848 -20.7848 -20.7848 -20.7848
    -8.7859  -8.2021  -8.1321  -8.1320  -8.1320  -8.1320  -8.1320  -8.1319
    -7.5625  -7.5625  -7.5625  -7.5624  -7.5624  -7.5624  -7.4635  -6.9541
    -6.9541  -6.9541  -6.9541  -6.9541  -6.9541  -6.8300  -6.8300  -6.8300
    -6.8299  -6.8299  -6.8299  -6.8027  -6.8026  -6.8026  -6.4629  -6.4629
    -6.4629  -6.4629  -6.4629  -6.4629  -6.4196  -6.4196  -6.4196  -5.8754
    -5.8754  -5.8754  -5.8193  -5.8193  -5.8193  -5.8193  -5.8193  -5.8193
    -5.1429  -5.1429  -5.1429  -5.0375  -5.0375  -5.0375  -5.0375  -5.0375
    -5.0375  -5.0334  -4.7620  -4.7620  -4.7619  -4.7619  -4.7618  -4.7618
    -4.7555  -4.4045  -4.4044  -4.4044  -4.4043  -4.4043  -4.4043  -4.2665
    -4.2665  -4.2665  -4.2057  -4.2057  -4.2057  -4.2057  -4.2057  -4.2057
    -3.7628  -3.7628  -3.7628  -3.5065  -3.5065  -3.5065  -3.5065  -3.5065
    -3.5065  -3.0789  -3.0789  -3.0789  -3.0074  -3.0074  -3.0074  -2.8855
    -2.8855  -2.8855  -2.8855  -2.8854  -2.8854  -2.7766  -2.7765  -2.7765
    -2.7765  -2.7765  -2.7764  -2.6853  -2.6853  -2.6853  -2.6853  -2.6852
    -2.6852  -2.5310  -1.5919  -1.5919  -1.5919  -1.5919  -1.5919  -1.5918
    -0.7955  -0.7955  -0.7955  -0.7955  -0.7954  -0.7954  -0.6537  -0.0997
    -0.0997  -0.0997  -0.0997  -0.0997  -0.0997  -0.0139  -0.0139  -0.0139
    -0.0139  -0.0139  -0.0139  -0.0118  -0.0118  -0.0118  -0.0117  -0.0117
    -0.0117   0.1172   0.1172   0.1172   0.1172   0.1172   0.1172   0.2172
     0.2172   0.2172   0.4613   0.4613   0.4614   0.4614   0.4614   0.4614
     0.4933   0.4933   0.4933   0.8753   0.8753   0.8753   0.9619   0.9619
     0.9619   0.9619   0.9620   0.9620   1.2463   1.2463   1.2463   1.2463
     1.2463   1.2463   1.2784   1.4158   1.4158   1.4158   1.4979   1.4979
     1.4979   1.4979   1.4979   1.4980   1.8124   1.8124   1.8124   2.0048
     2.0048   2.0048   2.0241   2.0241   2.0241   2.0241   2.0241   2.0241
     2.0285   2.0285   2.0285   2.0286   2.0286   2.0286   2.0631   2.0631
     2.0631   2.1728   2.1728   2.1728   2.1728   2.1729   2.1729   2.3512
     2.3512   2.3512   2.3879   2.3879   2.3879   2.3879   2.3880   2.3880
     2.4835   2.4835   2.6003   2.6003   2.6004   2.6004   2.6004   2.6004
     2.6619   2.6619   2.6620   2.6620   2.6620   2.6620   2.7824   2.7824
     2.7824   2.9074   2.9074   2.9074   2.9074   2.9074   2.9074   2.9308
     2.9308   2.9735   2.9735   2.9736   2.9736   2.9736   2.9736   3.0912
     3.4265   3.4265   3.5961   3.5961   3.5961   3.5961   3.5961   3.5961
     3.8988   3.8988   3.8989   3.8989   3.8989   3.8989   4.0151   4.0151
     4.0151   4.0151   4.0151   4.0151   4.0239   4.1208   4.1208   4.1209
     4.1209   4.1209   4.1209   4.3698   4.4282   4.6894   4.6894   4.6894
     4.9576   4.9576   4.9576   5.1167   5.1168   5.1168   5.1168   5.1168
     5.1168   5.1275   5.1275   5.1275   5.1637   5.1637   5.1637   5.2344
     5.2344   5.2344   5.3361   5.3361   5.3361   5.3361   5.3361   5.3361
     5.5499   5.5499   5.5499   5.5499   5.5500   5.5500   5.5909   5.5909
     5.5909   5.5909   5.5909   5.5909   5.6359   5.6359   5.6359   5.6359
     5.6359   5.6359   5.6924   5.6924   5.6924   5.8067   5.8067   6.0139
     6.0139   6.2054   6.2054   6.2054   6.2054   6.2055   6.2055   6.2856
     6.2856   6.2857   6.2857   6.2857   6.2857   6.3363   6.7086   6.7086
     6.7086   6.7086   6.7087   6.7087   6.7098   6.7098   6.7098   6.7098
     6.7098   6.7098   7.0268   7.0584   7.0584   7.1018   7.1018   7.1018
     7.1018   7.1018   7.1018   7.2641   7.2641   7.2641   7.5203   7.5203
     7.5203   7.5203   7.5203   7.5203   7.5374   7.5374   7.5374   7.5374
     7.5375   7.5375   7.5583   7.5583   7.5583   7.6127   7.6127   7.6484
     7.6484   7.9733   7.9733   7.9733   7.9733   7.9733   7.9733   7.9906
     7.9906   7.9906   8.0068   8.0068   8.0068   8.0068   8.0068   8.0068
     8.0853   8.0853   8.0853   8.0853   8.0854   8.0854   8.3231   8.3231
     8.3231   8.3232   8.3232   8.3232   8.3442   8.3442   8.3442   8.4217
     8.4217   8.4217   8.4217   8.4217   8.4217   8.4590   8.4913   8.6713
     8.6764   8.6772   8.6772

     the Fermi energy is     3.2487 ev

!    total energy              =  -22857.77921822 Ry
     estimated scf accuracy    <       0.00000053 Ry
     smearing contrib. (-TS)   =      -0.00425039 Ry
     internal energy E=F+TS    =  -22857.77496783 Ry

     The total energy is F=E-TS. E is the sum of the following terms:
     one-electron contribution =  -68425.71131383 Ry
     hartree contribution      =   35048.52924973 Ry
     xc contribution           =   -5576.42518052 Ry
     ewald contribution        =   16095.83227679 Ry

     convergence has been achieved in   9 iterations

     Forces acting on atoms (cartesian axes, Ry/au):

     atom    1 type  1   force =     0.00001902    0.00001098   -0.00883868
     atom    2 type  1   force =     0.00001171    0.00000676   -0.01282873
     atom    3 type  1   force =    -0.00000239   -0.00000138   -0.00364668
     atom    4 type  1   force =    -0.00000417   -0.00000241    0.00887821
     atom    5 type  1   force =    -0.00000431   -0.00000249   -0.00887809
     atom    6 type  1   force =    -0.00000990   -0.00000571    0.00366053
     atom    7 type  1   force =     0.00001306    0.00000754    0.01280938
     atom    8 type  1   force =     0.00002053    0.00001185    0.00886248
     atom    9 type  1   force =     0.00001864   -0.00000694   -0.00884383
     atom   10 type  1   force =     0.00001052    0.00000008   -0.01282374
     atom   11 type  1   force =    -0.00002614    0.00000156   -0.00365626
     atom   12 type  1   force =    -0.00001728    0.00000353    0.00886868
     atom   13 type  1   force =    -0.00001208   -0.00002224   -0.00887549
     atom   14 type  1   force =    -0.00001999   -0.00002236    0.00366547
     atom   15 type  1   force =    -0.00000078   -0.00001431    0.01281314
     atom   16 type  1   force =     0.00000331   -0.00002948    0.00885466
     atom   17 type  1   force =    -0.00000492   -0.00001327   -0.00885948
     atom   18 type  1   force =    -0.00000240   -0.00001229   -0.01282223
     atom   19 type  1   force =    -0.00002838    0.00000355   -0.00365391
     atom   20 type  1   force =    -0.00001998   -0.00000760    0.00887447
     atom   21 type  1   force =     0.00000539    0.00002178   -0.00887453
     atom   22 type  1   force =    -0.00000204    0.00002900    0.00366281
     atom   23 type  1   force =     0.00000483   -0.00000884    0.01282234
     atom   24 type  1   force =     0.00000240   -0.00001140    0.00883907
     atom   25 type  1   force =     0.00000204   -0.00001745   -0.00884074
     atom   26 type  1   force =     0.00000411   -0.00001204   -0.01282337
     atom   27 type  1   force =    -0.00000680    0.00003663   -0.00364905
     atom   28 type  1   force =    -0.00000273    0.00002543    0.00888254
     atom   29 type  1   force =     0.00000726    0.00000366   -0.00887565
     atom   30 type  1   force =     0.00000905    0.00000851    0.00366290
     atom   31 type  1   force =     0.00001430   -0.00000019    0.01281527
     atom   32 type  1   force =     0.00001782   -0.00000194    0.00885735
     atom   33 type  1   force =     0.00000331    0.00001961   -0.00884383
     atom   34 type  1   force =     0.00000533    0.00000907   -0.01282374
     atom   35 type  1   force =    -0.00001172   -0.00002342   -0.00365626
     atom   36 type  1   force =    -0.00000558   -0.00001673    0.00886868
     atom   37 type  1   force =    -0.00002530    0.00000066   -0.00887549
     atom   38 type  1   force =    -0.00002936   -0.00000613    0.00366547
     atom   39 type  1   force =    -0.00001278    0.00000648    0.01281314
     atom   40 type  1   force =    -0.00002388    0.00001761    0.00885466
     atom   41 type  1   force =    -0.00002414   -0.00001394   -0.00886377
     atom   42 type  1   force =    -0.00000715   -0.00000413   -0.01282660
     atom   43 type  1   force =    -0.00001594   -0.00000920   -0.00366345
     atom   44 type  1   force =    -0.00001299   -0.00000750    0.00885554
     atom   45 type  1   force =    -0.00000571   -0.00000330   -0.00885707
     atom   46 type  1   force =    -0.00001052   -0.00000607    0.00367003
     atom   47 type  1   force =    -0.00000954   -0.00000551    0.01282219
     atom   48 type  1   force =    -0.00002596   -0.00001499    0.00885409
     atom   49 type  1   force =    -0.00001823   -0.00000065   -0.00885911
     atom   50 type  1   force =    -0.00000405   -0.00000512   -0.01282943
     atom   51 type  1   force =     0.00000712    0.00000829   -0.00365880
     atom   52 type  1   force =     0.00001207   -0.00000226    0.00886295
     atom   53 type  1   force =    -0.00000735    0.00003343   -0.00886779
     atom   54 type  1   force =     0.00000070    0.00004071    0.00366359
     atom   55 type  1   force =     0.00000399    0.00000892    0.01282273
     atom   56 type  1   force =    -0.00000392    0.00002155    0.00885957
     atom   57 type  1   force =     0.00000789    0.00000400   -0.00884480
     atom   58 type  1   force =     0.00000721   -0.00000420   -0.01282746
     atom   59 type  1   force =     0.00001259    0.00003169   -0.00365623
     atom   60 type  1   force =     0.00001483    0.00002012    0.00887007
     atom   61 type  1   force =    -0.00002063    0.00000361   -0.00887820
     atom   62 type  1   force =    -0.00001881    0.00000261    0.00366296
     atom   63 type  1   force =    -0.00000173    0.00000774    0.01281698
     atom   64 type  1   force =    -0.00000750    0.00002047    0.00887384
     atom   65 type  1   force =    -0.00001395    0.00000237   -0.00885948
     atom   66 type  1   force =    -0.00001185    0.00000407   -0.01282223
     atom   67 type  1   force =    -0.00001112   -0.00002635   -0.00365391
     atom   68 type  1   force =    -0.00001657   -0.00001350    0.00887447
     atom   69 type  1   force =     0.00002156   -0.00000622   -0.00887453
     atom   70 type  1   force =     0.00002409   -0.00001627    0.00366281
     atom   71 type  1   force =    -0.00000524    0.00000861    0.01282234
     atom   72 type  1   force =    -0.00000867    0.00000778    0.00883907
     atom   73 type  1   force =    -0.00000968   -0.00001546   -0.00885911
     atom   74 type  1   force =    -0.00000646   -0.00000095   -0.01282943
     atom   75 type  1   force =     0.00001074    0.00000202   -0.00365880
     atom   76 type  1   force =     0.00000407    0.00001158    0.00886295
     atom   77 type  1   force =     0.00002528   -0.00002308   -0.00886779
     atom   78 type  1   force =     0.00003560   -0.00001975    0.00366359
     atom   79 type  1   force =     0.00000971   -0.00000100    0.01282273
     atom   80 type  1   force =     0.00001670   -0.00001418    0.00885957
     atom   81 type  1   force =     0.00002108    0.00001217   -0.00886873
     atom   82 type  1   force =     0.00000741    0.00000428   -0.01283258
     atom   83 type  1   force =     0.00001581    0.00000913   -0.00365624
     atom   84 type  1   force =     0.00000559    0.00000323    0.00886370
     atom   85 type  1   force =     0.00001101    0.00000636   -0.00888370
     atom   86 type  1   force =     0.00001467    0.00000847    0.00365355
     atom   87 type  1   force =     0.00000235    0.00000136    0.01282747
     atom   88 type  1   force =     0.00001225    0.00000707    0.00886946
     atom   89 type  1   force =     0.00001465   -0.00000295   -0.00886166
     atom   90 type  1   force =     0.00000400   -0.00000233   -0.01282273
     atom   91 type  1   force =    -0.00000743    0.00001346   -0.00365712
     atom   92 type  1   force =    -0.00001099    0.00001173    0.00887664
     atom   93 type  1   force =     0.00000759   -0.00001626   -0.00889053
     atom   94 type  1   force =     0.00000890   -0.00002195    0.00365929
     atom   95 type  1   force =    -0.00001192   -0.00000431    0.01282095
     atom   96 type  1   force =    -0.00000653   -0.00000438    0.00885235
     atom   97 type  1   force =    -0.00001410    0.00001049   -0.00884074
     atom   98 type  1   force =    -0.00000837    0.00000958   -0.01282337
     atom   99 type  1   force =     0.00002832   -0.00002421   -0.00364905
     atom  100 type  1   force =     0.00002066   -0.00001507    0.00888254
     atom  101 type  1   force =     0.00000680    0.00000446   -0.00887565
     atom  102 type  1   force =     0.00001190    0.00000358    0.00366290
     atom  103 type  1   force =     0.00000699    0.00001248    0.01281527
     atom  104 type  1   force =     0.00000723    0.00001640    0.00885735
     atom  105 type  1   force =     0.00000741    0.00000483   -0.00884480
     atom  106 type  1   force =    -0.00000003    0.00000835   -0.01282746
     atom  107 type  1   force =     0.00003374   -0.00000494   -0.00365623
     atom  108 type  1   force =     0.00002484    0.00000279    0.00887007
     atom  109 type  1   force =    -0.00000719   -0.00001967   -0.00887820
     atom  110 type  1   force =    -0.00000715   -0.00001760    0.00366296
     atom  111 type  1   force =     0.00000584   -0.00000537    0.01281698
     atom  112 type  1   force =     0.00001397   -0.00001673    0.00887384
     atom  113 type  1   force =     0.00000477    0.00001416   -0.00886166
     atom  114 type  1   force =    -0.00000002    0.00000462   -0.01282273
     atom  115 type  1   force =     0.00000795   -0.00001317   -0.00365712
     atom  116 type  1   force =     0.00000466   -0.00001539    0.00887664
     atom  117 type  1   force =    -0.00001029    0.00001470   -0.00889053
     atom  118 type  1   force =    -0.00001456    0.00001868    0.00365929
     atom  119 type  1   force =    -0.00000970   -0.00000816    0.01282095
     atom  120 type  1   force =    -0.00000706   -0.00000346    0.00885235
     atom  121 type  1   force =    -0.00002062   -0.00001191   -0.00884862
     atom  122 type  1   force =    -0.00001381   -0.00000797   -0.01281927
     atom  123 type  1   force =     0.00000509    0.00000294   -0.00365590
     atom  124 type  1   force =     0.00000303    0.00000175    0.00888230
     atom  125 type  1   force =     0.00000484    0.00000280   -0.00888221
     atom  126 type  1   force =    -0.00000028   -0.00000016    0.00366008
     atom  127 type  1   force =    -0.00000199   -0.00000115    0.01282162
     atom  128 type  1   force =    -0.00000747   -0.00000431    0.00884272

     Total force =     0.103530     Total SCF correction =     0.004351
     Energy error            =      1.5E-02 Ry
     Gradient error          =      1.3E-02 Ry/Bohr

     number of scf cycles    =   2
     number of bfgs steps    =   1

     energy             old  =  -22857.7640840828 Ry
     energy             new  =  -22857.7792182166 Ry

     CASE: energy            _new < energy            _old

     new trust radius        =       0.0149708460 bohr
     new conv_thr            =       0.0000001283 Ry


ATOMIC_POSITIONS (angstrom)
Ge            1.0031961553        0.5791952667        7.4463187277
Ge            1.0031876858        0.5791905537        4.9848966956
Ge            3.0095401934        1.7375581071       10.7272351813
Ge            3.0095389492        1.7375575656        8.2893034351
Ge            5.0159161332        2.8959393657       13.9971117845
Ge            5.0159128245        2.8959376323       11.5591726417
Ge            1.0031903797        0.5791912247       17.3015303959
Ge            1.0031958041        0.5791945333       14.8401268600
Ge            3.0095658186        4.0543028105        7.4463140831
Ge            3.0095541564        4.0543102131        4.9849000163
Ge            5.0158930775        5.2126986256       10.7272288229
Ge            5.0158975053        5.2126999317        8.2893005180
Ge            7.0222773480        6.3710407203       13.9971125544
Ge            7.0222734704        6.3710400706       11.5591739392
Ge            3.0095480900        4.0543008877       17.3015355274
Ge            3.0095538339        4.0542851327       14.8401152960
Ge            5.0159143432        7.5294339444        7.4463005007
Ge            5.0159124468        7.5294331897        4.9849027092
Ge            7.0222566788        8.6878101455       10.7272304104
Ge            7.0222578746        8.6878030903        8.2893020468
Ge            9.0286496380        9.8462041254       13.9971173251
Ge            9.0286448412        9.8462044734       11.5591728155
Ge            5.0159185730        7.5294345880       17.3015403369
Ge            5.0159219662        7.5294357704       14.8401066322
Ge            7.0222795533       11.0045381782        7.4463137812
Ge            7.0222789036       11.0045506536        4.9849027291
Ge            9.0286305280       12.1629629836       10.7272329444
Ge            9.0286334721       12.1629575368        8.2893062338
Ge           11.0350138337       13.3212994553       13.9971152804
Ge           11.0350166562       13.3213028579       11.5591753957
Ge            7.0222893294       11.0045600876       17.3015324613
Ge            7.0222953004       11.0045541032       14.8401215068
Ge            5.0159119472        0.5792077477        7.4463140831
Ge            5.0159123736        0.5791942119        4.9849000163
Ge            7.0222761528        1.7375395694       10.7272288229
Ge            7.0222793446        1.7375430162        8.2893005180
Ge            9.0286223408        2.8959476247       13.9971125544
Ge            9.0286196861        2.8959448567       11.5591739392
Ge            5.0159020304        0.5791922944       17.3015355274
Ge            5.0158911049        0.5792054116       14.8401152960
Ge            7.0222586502        4.0543020353        7.4463005929
Ge            7.0222722241        4.0543100492        4.9848999196
Ge            9.0286389097        5.2126857880       10.7272250245
Ge            9.0286371349        5.2126849402        8.2892934983
Ge           11.0349959109        6.3710561125       13.9971263734
Ge           11.0349911051        6.3710535148       11.5591756902
Ge            7.0222715967        4.0543088025       17.3015410877
Ge            7.0222585504        4.0543014470       14.8401118537
Ge            9.0286223080        7.5294432055        7.4463026296
Ge            9.0286351441        7.5294352132        4.9848991680
Ge           11.0350132362        8.6878032305       10.7272278954
Ge           11.0350176606        8.6877998986        8.2892984482
Ge           13.0413587436        9.8462128994       13.9971183245
Ge           13.0413639683        9.8462171039       11.5591735498
Ge            9.0286434967        7.5294454497       17.3015386878
Ge            9.0286348694        7.5294609016       14.8401181757
Ge           11.0350055207       11.0045549665        7.4463142039
Ge           11.0350062821       11.0045553825        4.9848988449
Ge           13.0413833928       12.1629549272       10.7272290437
Ge           13.0413848094       12.1629487275        8.2892992760
Ge           15.0477199098       13.3213077527       13.9971113258
Ge           15.0477194824       13.3213070995       11.5591726689
Ge           11.0350019778       11.0045633882       17.3015348156
Ge           11.0349911054       11.0045689043       14.8401297481
Ge            9.0286375993        0.5791901270        7.4463005007
Ge            9.0286358444        0.5791891272        4.9849027092
Ge           11.0349923570        1.7375448124       10.7272304104
Ge           11.0349866917        1.7375496408        8.2893020468
Ge           13.0413878234        2.8959344497       13.9971173251
Ge           13.0413855732        2.8959303868       11.5591728155
Ge            9.0286408844        0.5791924068       17.3015403369
Ge            9.0286434517        0.5791950196       14.8401066322
Ge           11.0350005606        4.0542925021        7.4463026296
Ge           11.0349999039        4.0543078800        4.9848991680
Ge           13.0413656057        5.2126973581       10.7272278954
Ge           13.0413647793        5.2127031210        8.2892984482
Ge           15.0477509333        6.3710380565       13.9971183245
Ge           15.0477570337        6.3710407443       11.5591735498
Ge           11.0350137113        4.0543086688       17.3015386878
Ge           11.0350226261        4.0542937365       14.8401181757
Ge           13.0413866574        7.5294466275        7.4462985621
Ge           13.0413733021        7.5294390936        4.9848964545
Ge           15.0477357190        8.6878123681       10.7272303271
[...]
     atom   14 type  1   force =    -0.00000192   -0.00000075    0.00000719
     atom   15 type  1   force =     0.00002965   -0.00005162    0.00020215
     atom   16 type  1   force =     0.00000554    0.00000285   -0.00022416
     atom   17 type  1   force =    -0.00000177    0.00000153    0.00021961
     atom   18 type  1   force =     0.00003205    0.00001574   -0.00019792
     atom   19 type  1   force =    -0.00000575   -0.00000108   -0.00000411
     atom   20 type  1   force =    -0.00000311   -0.00000059   -0.00001319
     atom   21 type  1   force =    -0.00000129   -0.00000183    0.00001785
     atom   22 type  1   force =    -0.00000402   -0.00000406    0.00000791
     atom   23 type  1   force =     0.00003213    0.00001620    0.00020055
     atom   24 type  1   force =    -0.00000024    0.00000198   -0.00022300
     atom   25 type  1   force =    -0.00000350   -0.00000441    0.00021655
     atom   26 type  1   force =     0.00003331   -0.00005280   -0.00020708
     atom   27 type  1   force =    -0.00000041    0.00000023    0.00000091
     atom   28 type  1   force =    -0.00000269   -0.00000032   -0.00001318
     atom   29 type  1   force =     0.00000427   -0.00000077    0.00001626
     atom   30 type  1   force =     0.00000263    0.00000081    0.00000426
     atom   31 type  1   force =     0.00003340   -0.00005173    0.00020053
     atom   32 type  1   force =    -0.00000424   -0.00000604   -0.00022237
     atom   33 type  1   force =     0.00000314    0.00000268    0.00021793
     atom   34 type  1   force =    -0.00003005    0.00005065   -0.00020662
     atom   35 type  1   force =    -0.00000034   -0.00000147   -0.00000145
     atom   36 type  1   force =     0.00000204   -0.00000084   -0.00001178
     atom   37 type  1   force =    -0.00000250   -0.00000157    0.00001708
     atom   38 type  1   force =    -0.00000161   -0.00000129    0.00000719
     atom   39 type  1   force =    -0.00002989    0.00005149    0.00020215
     atom   40 type  1   force =     0.00000524    0.00000338   -0.00022416
     atom   41 type  1   force =    -0.00000284   -0.00000164    0.00021856
     atom   42 type  1   force =    -0.00002670   -0.00001541   -0.00020440
     atom   43 type  1   force =    -0.00000418   -0.00000242    0.00000294
     atom   44 type  1   force =    -0.00000118   -0.00000068   -0.00001033
     atom   45 type  1   force =    -0.00000085   -0.00000049    0.00001618
     atom   46 type  1   force =    -0.00000347   -0.00000200    0.00000215
     atom   47 type  1   force =    -0.00002848   -0.00001644    0.00019725
     atom   48 type  1   force =    -0.00000019   -0.00000011   -0.00022612
     atom   49 type  1   force =    -0.00000428    0.00000128    0.00021730
     atom   50 type  1   force =    -0.00002603    0.00005070   -0.00020490
     atom   51 type  1   force =     0.00000078    0.00000155   -0.00000026
     atom   52 type  1   force =    -0.00000035   -0.00000081   -0.00001253
     atom   53 type  1   force =     0.00000355    0.00000209    0.00001802
     atom   54 type  1   force =     0.00000291    0.00000016    0.00000668
     atom   55 type  1   force =    -0.00002678    0.00005225    0.00020037
     atom   56 type  1   force =    -0.00000474   -0.00000077   -0.00022303
     atom   57 type  1   force =     0.00000115   -0.00000057    0.00021653
     atom   58 type  1   force =    -0.00002963   -0.00002087   -0.00021044
     atom   59 type  1   force =     0.00000512    0.00000190    0.00000382
     atom   60 type  1   force =     0.00000335    0.00000059   -0.00000997
     atom   61 type  1   force =     0.00000219   -0.00000060    0.00001469
     atom   62 type  1   force =     0.00000520    0.00000204    0.00000391
     atom   63 type  1   force =    -0.00003148   -0.00002004    0.00019834
     atom   64 type  1   force =    -0.00000043   -0.00000303   -0.00022488
     atom   65 type  1   force =     0.00000044   -0.00000230    0.00021961
     atom   66 type  1   force =     0.00002965    0.00001989   -0.00019792
     atom   67 type  1   force =    -0.00000382   -0.00000444   -0.00000411
     atom   68 type  1   force =    -0.00000206   -0.00000240   -0.00001319
     atom   69 type  1   force =    -0.00000223   -0.00000020    0.00001785
     atom   70 type  1   force =    -0.00000553   -0.00000145    0.00000791
     atom   71 type  1   force =     0.00003010    0.00001973    0.00020055
     atom   72 type  1   force =     0.00000159   -0.00000119   -0.00022300
     atom   73 type  1   force =    -0.00000103   -0.00000435    0.00021730
     atom   74 type  1   force =     0.00003089   -0.00004789   -0.00020490
     atom   75 type  1   force =     0.00000173   -0.00000010   -0.00000026
     atom   76 type  1   force =    -0.00000088    0.00000010   -0.00001253
     atom   77 type  1   force =     0.00000359    0.00000203    0.00001802
     atom   78 type  1   force =     0.00000159    0.00000244    0.00000668
     atom   79 type  1   force =     0.00003186   -0.00004932    0.00020037
     atom   80 type  1   force =    -0.00000304   -0.00000372   -0.00022303
     atom   81 type  1   force =     0.00000478    0.00000276    0.00021873
     atom   82 type  1   force =     0.00002701    0.00001560   -0.00020245
     atom   83 type  1   force =     0.00000597    0.00000345   -0.00000359
     atom   84 type  1   force =     0.00000215    0.00000124   -0.00001157
     atom   85 type  1   force =     0.00000226    0.00000130    0.00001625
     atom   86 type  1   force =     0.00000368    0.00000213    0.00001121
     atom   87 type  1   force =     0.00002726    0.00001574    0.00020174
     atom   88 type  1   force =     0.00000181    0.00000105   -0.00022215
     atom   89 type  1   force =     0.00000550   -0.00000095    0.00021692
     atom   90 type  1   force =     0.00002710   -0.00005372   -0.00020190
     atom   91 type  1   force =     0.00000041   -0.00000190   -0.00000193
     atom   92 type  1   force =     0.00000119    0.00000065   -0.00001081
     atom   93 type  1   force =    -0.00000248   -0.00000352    0.00001673
     atom   94 type  1   force =    -0.00000267   -0.00000105    0.00000712
     atom   95 type  1   force =     0.00002807   -0.00005422    0.00019968
     atom   96 type  1   force =     0.00000716   -0.00000113   -0.00022332
     atom   97 type  1   force =    -0.00000557   -0.00000083    0.00021655
     atom   98 type  1   force =    -0.00002907    0.00005524   -0.00020708
     atom   99 type  1   force =    -0.00000000   -0.00000047    0.00000091
     atom  100 type  1   force =    -0.00000163   -0.00000217   -0.00001318
     atom  101 type  1   force =     0.00000146    0.00000408    0.00001626
     atom  102 type  1   force =     0.00000201    0.00000187    0.00000426
     atom  103 type  1   force =    -0.00002810    0.00005480    0.00020053
     atom  104 type  1   force =    -0.00000735   -0.00000065   -0.00022237
     atom  105 type  1   force =     0.00000008    0.00000128    0.00021653
     atom  106 type  1   force =    -0.00003289   -0.00001523   -0.00021044
     atom  107 type  1   force =     0.00000420    0.00000348    0.00000382
     atom  108 type  1   force =     0.00000218    0.00000261   -0.00000997
     atom  109 type  1   force =     0.00000058    0.00000220    0.00001469
     atom  110 type  1   force =     0.00000436    0.00000348    0.00000391
     atom  111 type  1   force =    -0.00003309   -0.00001724    0.00019834
     atom  112 type  1   force =    -0.00000284    0.00000114   -0.00022488
     atom  113 type  1   force =     0.00000193    0.00000524    0.00021692
     atom  114 type  1   force =    -0.00003297    0.00005033   -0.00020190
     atom  115 type  1   force =    -0.00000144    0.00000131   -0.00000193
     atom  116 type  1   force =     0.00000116    0.00000071   -0.00001081
     atom  117 type  1   force =    -0.00000429   -0.00000039    0.00001673
     atom  118 type  1   force =    -0.00000224   -0.00000179    0.00000712
     atom  119 type  1   force =    -0.00003292    0.00005142    0.00019968
     atom  120 type  1   force =     0.00000260    0.00000676   -0.00022332
     atom  121 type  1   force =    -0.00000304   -0.00000176    0.00021649
     atom  122 type  1   force =    -0.00003040   -0.00001755   -0.00020232
     atom  123 type  1   force =    -0.00000565   -0.00000326    0.00000245
     atom  124 type  1   force =    -0.00000227   -0.00000131   -0.00001081
     atom  125 type  1   force =    -0.00000403   -0.00000232    0.00001520
     atom  126 type  1   force =    -0.00000489   -0.00000283    0.00000044
     atom  127 type  1   force =    -0.00002983   -0.00001722    0.00019375
     atom  128 type  1   force =    -0.00000340   -0.00000196   -0.00022415

     Total force =     0.001719     Total SCF correction =     0.000225
     SCF correction compared to forces is large: reduce conv_thr to get better values
     Energy error            =      3.7E-05 Ry
     Gradient error          =      2.3E-04 Ry/Bohr

     bfgs converged in  15 scf cycles and  14 bfgs steps
     (criteria: energy <  1.0E-04 Ry, force <  1.0E-03 Ry/Bohr)

     End of BFGS Geometry Optimization

     Final energy             =  -22857.8790389506 Ry

     File ./out/ge.bfgs deleted, as requested
Begin final coordinates

ATOMIC_POSITIONS (angstrom)
Ge            1.0032510201        0.5792269430        7.2964833175
Ge            1.0034243329        0.5793271819        4.8027907999
Ge            3.0094434674        1.7375022623       10.7021037136
Ge            3.0094728738        1.7375194169        8.2197805117
Ge            5.0159546851        2.8959616237       14.0666194440
Ge            5.0159443048        2.8959558074       11.5842629137
Ge            1.0033947793        0.5793092347       17.4835497287
Ge            1.0032585462        0.5792307575       14.9898061454
Ge            3.0095989523        4.0541653180        7.2965643599
Ge            3.0097687513        4.0539061125        4.8028497318
Ge            5.0158524719        5.2127971049       10.7019229522
Ge            5.0158569093        5.2127655040        8.2195634090
Ge            7.0223708942        6.3709745548       14.0668190368
Ge            7.0223697923        6.3709456928       11.5844541361
Ge            3.0097432514        4.0538225723       17.4836325209
Ge            3.0095932034        4.0541543841       14.9899022414
Ge            5.0160151094        7.5294680427        7.2964421805
Ge            5.0162229776        7.5295306167        4.8027176167
Ge            7.0222546563        8.6877789503       10.7021071424
Ge            7.0222572774        8.6877717122        8.2197702089
Ge            9.0287194406        9.8462274718       14.0665938902
Ge            9.0287384399        9.8462470399       11.5842611318
Ge            5.0162665244        7.5295296586       17.4835453320
Ge            5.0160056819        7.5294699643       14.9897989270
Ge            7.0223918816       11.0044354995        7.2965644799
Ge            7.0226050947       11.0040805206        4.8028510785
Ge            9.0285758619       12.1630561102       10.7019010072
Ge            9.0286119342       12.1630340718        8.2195743415
Ge           11.0350319954       13.3212061528       14.0668142328
Ge           11.0350490516       13.3211857510       11.5844648645
Ge            7.0226750853       11.0041779214       17.4836285718
Ge            7.0224011486       11.0044601095       14.9898884339
Ge            5.0158094420        0.5793051885        7.2965643599
Ge            5.0156697097        0.5795821069        4.8028497318
Ge            7.0223411355        1.7374551642       10.7019229522
Ge            7.0223158338        1.7374750728        8.2195634090
Ge            9.0286118129        2.8960617208       14.0668190368
Ge            9.0285861135        2.8960754628       11.5844541361
Ge            5.0155853778        0.5796004669       17.4836325209
Ge            5.0157975582        0.5793048809       14.9899022414
Ge            7.0222201930        4.0542798320        7.2966283313
Ge            7.0221175620        4.0542207550        4.8028903185
Ge            9.0287403197        5.2127443370       10.7017231154
Ge            9.0287116945        5.2127279872        8.2193631504
Ge           11.0349615703        6.3710362860       14.0670048226
Ge           11.0349524807        6.3710312150       11.5846449683
Ge            7.0220884109        4.0542030401       17.4837202612
Ge            7.0222047792        4.0542704022       14.9899915168
Ge            9.0286010037        7.5295637407        7.2965372845
Ge            9.0284954036        7.5298162940        4.8028107346
Ge           11.0350619835        8.6876794431       10.7019101362
Ge           11.0350661493        8.6877071734        8.2195847187
Ge           13.0412701371        9.8462622571       14.0668149798
Ge           13.0412652035        9.8462976096       11.5844595880
Ge            9.0285061819        7.5298799546       17.4836381368
Ge            9.0286053043        7.5295866340       14.9898957943
Ge           11.0349231720       11.0044952775        7.2966659691
Ge           11.0347745882       11.0043037026        4.8029457579
Ge           13.0413936615       12.1629634492       10.7017323532
Ge           13.0413960208       12.1629546459        8.2193712484
Ge           15.0476605973       13.3212810270       14.0670376675
Ge           15.0476249856       13.3212646205       11.5846411226
Ge           11.0346938783       11.0043914296       17.4837342797
Ge           11.0349203803       11.0045253537       14.9900010806
Ge            9.0287175125        0.5792603439        7.2964421805
Ge            9.0288754842        0.5794093412        4.8027176167
Ge           11.0349643299        1.7375586585       10.7021071424
Ge           11.0349592190        1.7375648127        8.2197702089
Ge           13.0414429433        2.8959832273       14.0665938902
Ge           13.0414692363        2.8959901623       11.5842611318
Ge            9.0288971937        0.5794462062       17.4835453320
Ge            9.0287149224        0.5792504226       14.9897989270
Ge           11.0350942949        4.0542137844        7.2965372845
Ge           11.0352600593        4.0539963207        4.8028107346
Ge           13.0412827763        5.2128014681       10.7019101362
Ge           13.0413087212        5.2127914761        8.2195847187
Ge           15.0477493750        6.3709366421       14.0668149798
Ge           15.0477773712        6.3709149586       11.5844595880
Ge           11.0353213462        4.0539724981       17.4836381368
Ge           11.0351167310        4.0542052662       14.9898957943
Ge           13.0414147820        7.5294628652        7.2964561682
Ge           13.0415414583        7.5295361786        4.8027384142
Ge           15.0476177650        8.6877442673       10.7021136931
Ge           15.0476411376        8.6877579383        8.2197773450
Ge           17.0541339325        9.8462064865       14.0666368777
Ge           17.0541367657        9.8462082990       11.5842614925
Ge           13.0415192896        7.5295224951       17.4835623237
Ge           13.0414286794        7.5294703582       14.9898106279
Ge           15.0477679331       11.0044132885        7.2965483966
Ge           15.0479018229       11.0040714605        4.8028187518
Ge           17.0540236793       12.1630677584       10.7019230528
Ge           17.0540220581       12.1630364325        8.2195511853
Ge           19.0605478725       13.3212447861       14.0668287874
Ge           19.0605571387       13.3212132204       11.5844508644
Ge           15.0478470111       11.0040774187       17.4836416219
Ge           15.0477598422       11.0044168865       14.9899070270
Ge           13.0413155399        0.5793490248        7.2965644799
Ge           13.0411145725        0.5797114275        4.8028510785
Ge           15.0478027849        1.7374443657       10.7019010072
Ge           15.0478015820        1.7374868896        8.2195743415
Ge           17.0540185825        2.8960106823       14.0668142328
Ge           17.0540092888        2.8960359195       11.5844648645
Ge           13.0412346854        0.5797220140       17.4836285718
Ge           13.0413419459        0.5793439492       14.9898884339
Ge           15.0476339130        4.0542731370        7.2966659691
Ge           15.0473935590        4.0542405125        4.8029457579
Ge           17.0541323964        5.2126928217       10.7017323532
Ge           17.0541257989        5.2126995319        8.2193712484
Ge           19.0603986849        6.3710115206       14.0670376675
Ge           19.0603665174        6.3709891487       11.5846411226
Ge           15.0474299438        4.0541254256       17.4837342797
Ge           15.0476590235        4.0542548853       14.9900010806
Ge           17.0539862476        7.5295396064        7.2965483966
Ge           17.0537570076        7.5298267377        4.8028187518
Ge           19.0605386982        8.6876801688       10.7019230528
Ge           19.0605106054        8.6876946930        8.2195511853
Ge           21.0668118957        9.8462919342       14.0668287874
Ge           21.0667890388        9.8463160072       11.5844508644
Ge           17.0537355274        7.5297749636       17.4836416219
Ge           17.0539857775        7.5295300045       14.9899070270
Ge           19.0603991033       11.0045245002        7.2966473733
Ge           19.0601931783       11.0044057864        4.8029083307
Ge           21.0669393382       12.1630006147       10.7017304600
Ge           21.0669084409       12.1629829531        8.2193555539
Ge           23.0731652863       13.3212952757       14.0670030228
Ge           23.0731583558       13.3212914513       11.5846363862
Ge           19.0602612717       11.0044442156       17.4837286293
Ge           19.0604004955       11.0045247733       14.9899944012
End final coordinates



     Writing output data file ./out/ge.save/
 
     init_run     :      4.43s CPU      5.79s WALL (       1 calls)
     electrons    :   2377.90s CPU   3036.72s WALL (      15 calls)
     update_pot   :      3.70s CPU      3.93s WALL (      14 calls)
     forces       :     48.61s CPU     71.51s WALL (      15 calls)

     Called by init_run:
     wfcinit      :      3.83s CPU      5.09s WALL (       1 calls)
     potinit      :      0.11s CPU      0.15s WALL (       1 calls)
     hinit0       :      0.13s CPU      0.18s WALL (       1 calls)

     Called by electrons:
     c_bands      :   2213.59s CPU   2862.09s WALL (     183 calls)
     sum_band     :    152.17s CPU    158.86s WALL (     183 calls)
     v_of_rho     :      9.81s CPU     12.30s WALL (     191 calls)
     mix_rho      :      2.29s CPU      2.42s WALL (     183 calls)

     Called by c_bands:
     init_us_2    :     19.88s CPU     20.13s WALL (     367 calls)
     regterg      :   2134.31s CPU   2780.40s WALL (     183 calls)

     Called by *egterg:
     rdiaghg      :     81.01s CPU    146.68s WALL (     729 calls)
     h_psi        :   1014.44s CPU   1048.47s WALL (     751 calls)
     g_psi        :      5.10s CPU      5.17s WALL (     567 calls)

     Called by h_psi:
     h_psi:calbec :    271.21s CPU    288.73s WALL (     751 calls)
     vloc_psi     :    533.14s CPU    547.69s WALL (     751 calls)
     add_vuspsi   :    198.75s CPU    200.60s WALL (     751 calls)

     General routines
     calbec       :    308.81s CPU    347.20s WALL (     811 calls)
     fft          :      7.26s CPU     10.58s WALL (    1669 calls)
     ffts         :      0.60s CPU      0.61s WALL (     183 calls)
     fftw         :    552.82s CPU    571.73s WALL (  553354 calls)
 
     Parallel routines
 
     PWSCF        :  40m38.20s CPU  52m 5.99s WALL

 
   This run was terminated on:  11:36:52  28Apr2025            

=------------------------------------------------------------------------------=
   JOB DONE.
=------------------------------------------------------------------------------=
