calculator: qe
length_unit: au
nqpoint: 357    
npath: 7      
segment_nqpoint:
- 51
- 51
- 51
- 51
- 51
- 51
- 51
reciprocal_lattice:
- [   0.00000000,   0.11832292,   0.00000000 ] # a*
- [   0.00000000,   0.00000000,   0.11832292 ] # b*
- [   0.18216795,   0.00000000,   0.00000000 ] # c*
natom: 6      
lattice:
- [     0.000000000000000,     8.451448299845282,     0.000000000000000 ] # a
- [     0.000000000000000,     0.000000000000000,     8.451448299845282 ] # b
- [     5.489439851616213,     0.000000000000000,     0.000000000000000 ] # c
points:
- symbol: Ge # 1
  coordinates: [  0.500215134143282,  0.500215134143282,  0.500537754100324 ]
  mass: 72.640000
- symbol: Ge # 2
  coordinates: [  0.000216405901088,  0.000216405901088,  0.000603174110092 ]
  mass: 72.640000
- symbol: O # 3
  coordinates: [  0.693315267136856,  0.693315267136856,  0.000562555482827 ]
  mass: 15.999400
- symbol: O # 4
  coordinates: [  0.807154657244412,  0.193342227029458,  0.500569377436227 ]
  mass: 15.999400
- symbol: O # 5
  coordinates: [  0.307130531924816,  0.307130531924816,  0.000562614349156 ]
  mass: 15.999400
- symbol: O # 6
  coordinates: [  0.193342227029458,  0.807154657244412,  0.500569377436227 ]
  mass: 15.999400

phonon:
- q-position: [    0.0000000,    0.0000000,    0.0000000 ]
  distance:    0.0000000
  band:
  - # 1
    frequency:   -0.1309227178
  - # 2
    frequency:   -0.0400263045
  - # 3
    frequency:   -0.0273524410
  - # 4
    frequency:    4.3204618007
  - # 5
    frequency:    5.7662754460
  - # 6
    frequency:    7.9690035375
  - # 7
    frequency:    8.0124210767
  - # 8
    frequency:    9.8926969883
  - # 9
    frequency:    9.8991346533
  - # 10
    frequency:   12.8955948803
  - # 11
    frequency:   13.6558550009
  - # 12
    frequency:   14.3058971652
  - # 13
    frequency:   14.4269217326
  - # 14
    frequency:   17.6377509015
  - # 15
    frequency:   17.6677214826
  - # 16
    frequency:   17.9095708469
  - # 17
    frequency:   19.3261335463
  - # 18
    frequency:   23.6685827189

- q-position: [    0.0000000,    0.0100000,    0.0000000 ]
  distance:    0.0011832
  band:
  - # 1
    frequency:   -0.1619860031
  - # 2
    frequency:    0.0964092120
  - # 3
    frequency:    0.1258818164
  - # 4
    frequency:    4.3245769685
  - # 5
    frequency:    5.7657808448
  - # 6
    frequency:    7.9671498644
  - # 7
    frequency:    8.0296259773
  - # 8
    frequency:    9.8906762650
  - # 9
    frequency:    9.9003137003
  - # 10
    frequency:   12.8947285642
  - # 11
    frequency:   13.6550387252
  - # 12
    frequency:   14.3068583576
  - # 13
    frequency:   14.4277691726
  - # 14
    frequency:   17.6202706988
  - # 15
    frequency:   17.6853822592
  - # 16
    frequency:   17.9089773296
  - # 17
    frequency:   19.3297781829
  - # 18
    frequency:   23.6682120777

- q-position: [    0.0000000,    0.0200000,    0.0000000 ]
  distance:    0.0023665
  band:
  - # 1
    frequency:   -0.2085928748
  - # 2
    frequency:    0.2007012621
  - # 3
    frequency:    0.2421130689
  - # 4
    frequency:    4.3368102755
  - # 5
    frequency:    5.7642965954
  - # 6
    frequency:    7.9655598968
  - # 7
    frequency:    8.0768726938
  - # 8
    frequency:    9.8862754749
  - # 9
    frequency:    9.9021785053
  - # 10
    frequency:   12.8921326210
  - # 11
    frequency:   13.6526267627
  - # 12
    frequency:   14.3095847427
  - # 13
    frequency:   14.4304298847
  - # 14
    frequency:   17.5935305614
  - # 15
    frequency:   17.7127125822
  - # 16
    frequency:   17.9071969997
  - # 17
    frequency:   19.3407160728
  - # 18
    frequency:   23.6670959458

- q-position: [    0.0000000,    0.0300000,    0.0000000 ]
  distance:    0.0035497
  band:
  - # 1
    frequency:   -0.2563547165
  - # 2
    frequency:    0.3025372497
  - # 3
    frequency:    0.3577482979
  - # 4
    frequency:    4.3568366941
  - # 5
    frequency:    5.7618213615
  - # 6
    frequency:    7.9659944270
  - # 7
    frequency:    8.1512324298
  - # 8
    frequency:    9.8804977972
  - # 9
    frequency:    9.9036948605
  - # 10
    frequency:   12.8878160751
  - # 11
    frequency:   13.6487252380
  - # 12
    frequency:   14.3136189770
  - # 13
    frequency:   14.4352492904
  - # 14
    frequency:   17.5662011107
  - # 15
    frequency:   17.7411851806
  - # 16
    frequency:   17.9042305245
  - # 17
    frequency:   19.3589599189
  - # 18
    frequency:   23.6652221057

- q-position: [    0.0000000,    0.0400000,    0.0000000 ]
  distance:    0.0047329
  band:
  - # 1
    frequency:   -0.2972044547
  - # 2
    frequency:    0.4037559915
  - # 3
    frequency:    0.4748415421
  - # 4
    frequency:    4.3841504916
  - # 5
    frequency:    5.7583529158
  - # 6
    frequency:    7.9680179063
  - # 7
    frequency:    8.2512659065
  - # 8
    frequency:    9.8734725044
  - # 9
    frequency:    9.9046884006
  - # 10
    frequency:   12.8817939993
  - # 11
    frequency:   13.6434973189
  - # 12
    frequency:   14.3182620835
  - # 13
    frequency:   14.4427535672
  - # 14
    frequency:   17.5393236474
  - # 15
    frequency:   17.7699909032
  - # 16
    frequency:   17.9000790206
  - # 17
    frequency:   19.3845333523
  - # 18
    frequency:   23.6625715377

- q-position: [    0.0000000,    0.0500000,    0.0000000 ]
  distance:    0.0059161
  band:
  - # 1
    frequency:   -0.3233654229
  - # 2
    frequency:    0.5046819821
  - # 3
    frequency:    0.5934471430
  - # 4
    frequency:    4.4181111715
  - # 5
    frequency:    5.7538881431
  - # 6
    frequency:    7.9712616104
  - # 7
    frequency:    8.3748542085
  - # 8
    frequency:    9.8651836601
  - # 9
    frequency:    9.9051278433
  - # 10
    frequency:   12.8740875574
  - # 11
    frequency:   13.6371462940
  - # 12
    frequency:   14.3227070701
  - # 13
    frequency:   14.4535329984
  - # 14
    frequency:   17.5133392375
  - # 15
    frequency:   17.7989996198
  - # 16
    frequency:   17.8947440683
  - # 17
    frequency:   19.4174743171
  - # 18
    frequency:   23.6591203718

- q-position: [    0.0000000,    0.0600000,    0.0000000 ]
  distance:    0.0070994
  band:
  - # 1
    frequency:   -0.3259638132
  - # 2
    frequency:    0.6053823564
  - # 3
    frequency:    0.7135278832
  - # 4
    frequency:    4.4579945786
  - # 5
    frequency:    5.7484230476
  - # 6
    frequency:    7.9755400468
  - # 7
    frequency:    8.5191883712
  - # 8
    frequency:    9.8555985431
  - # 9
    frequency:    9.9050186877
  - # 10
    frequency:   12.8647240562
  - # 11
    frequency:   13.6298975607
  - # 12
    frequency:   14.3262384279
  - # 13
    frequency:   14.4680605501
  - # 14
    frequency:   17.4885910116
  - # 15
    frequency:   17.8282441899
  - # 16
    frequency:   17.8882277841
  - # 17
    frequency:   19.4578391649
  - # 18
    frequency:   23.6548425003

- q-position: [    0.0000000,    0.0700000,    0.0000000 ]
  distance:    0.0082826
  band:
  - # 1
    frequency:   -0.2905396153
  - # 2
    frequency:    0.7058592029
  - # 3
    frequency:    0.8350456113
  - # 4
    frequency:    4.5030411526
  - # 5
    frequency:    5.7419527657
  - # 6
    frequency:    7.9807620310
  - # 7
    frequency:    8.6809522751
  - # 8
    frequency:    9.8446940099
  - # 9
    frequency:    9.9044192474
  - # 10
    frequency:   12.8537369937
  - # 11
    frequency:   13.6219825017
  - # 12
    frequency:   14.3284028727
  - # 13
    frequency:   14.4865373336
  - # 14
    frequency:   17.4653999003
  - # 15
    frequency:   17.8578270278
  - # 16
    frequency:   17.8805336276
  - # 17
    frequency:   19.5057067602
  - # 18
    frequency:   23.6497127424

- q-position: [    0.0000000,    0.0800000,    0.0000000 ]
  distance:    0.0094658
  band:
  - # 1
    frequency:   -0.1724063717
  - # 2
    frequency:    0.8060944651
  - # 3
    frequency:    0.9579469038
  - # 4
    frequency:    4.5524957168
  - # 5
    frequency:    5.7344715839
  - # 6
    frequency:    7.9868800957
  - # 7
    frequency:    8.8564179820
  - # 8
    frequency:    9.8324637303
  - # 9
    frequency:    9.9035216320
  - # 10
    frequency:   12.8411660880
  - # 11
    frequency:   13.6136259461
  - # 12
    frequency:   14.3290457682
  - # 13
    frequency:   14.5088688182
  - # 14
    frequency:   17.4440788842
  - # 15
    frequency:   17.8716554305
  - # 16
    frequency:   17.8878973217
  - # 17
    frequency:   19.5611816802
  - # 18
    frequency:   23.6437104284

- q-position: [    0.0000000,    0.0900000,    0.0000000 ]
  distance:    0.0106491
  band:
  - # 1
    frequency:    0.2590196482
  - # 2
    frequency:    0.9060631589
  - # 3
    frequency:    1.0821564629
  - # 4
    frequency:    4.6056361603
  - # 5
    frequency:    5.7259729620
  - # 6
    frequency:    7.9938673528
  - # 7
    frequency:    9.0413847519
  - # 8
    frequency:    9.8189225979
  - # 9
    frequency:    9.9028530573
  - # 10
    frequency:   12.8270572651
  - # 11
    frequency:   13.6050376612
  - # 12
    frequency:   14.3282228567
  - # 13
    frequency:   14.5347617206
  - # 14
    frequency:   17.4249332782
  - # 15
    frequency:   17.8616130595
  - # 16
    frequency:   17.9185938034
  - # 17
    frequency:   19.6243954268
  - # 18
    frequency:   23.6368232648

- q-position: [    0.0000000,    0.1000000,    0.0000000 ]
  distance:    0.0118323
  band:
  - # 1
    frequency:    0.4636063667
  - # 2
    frequency:    1.0057384193
  - # 3
    frequency:    1.2075786637
  - # 4
    frequency:    4.6617909407
  - # 5
    frequency:    5.7164495599
  - # 6
    frequency:    8.0017066740
  - # 7
    frequency:    9.2307432716
  - # 8
    frequency:    9.8041171664
  - # 9
    frequency:    9.9038181475
  - # 10
    frequency:   12.8114625758
  - # 11
    frequency:   13.5964074658
  - # 12
    frequency:   14.3260837501
  - # 13
    frequency:   14.5638455289
  - # 14
    frequency:   17.4082570920
  - # 15
    frequency:   17.8503993488
  - # 16
    frequency:   17.9500794058
  - # 17
    frequency:   19.6955045037
  - # 18
    frequency:   23.6290513298

- q-position: [    0.0000000,    0.1100000,    0.0000000 ]
  distance:    0.0130155
  band:
  - # 1
    frequency:    0.6496506598
  - # 2
    frequency:    1.1050946944
  - # 3
    frequency:    1.3341023464
  - # 4
    frequency:    4.7203470125
  - # 5
    frequency:    5.7058932684
  - # 6
    frequency:    8.0103851212
  - # 7
    frequency:    9.4168245366
  - # 8
    frequency:    9.7881631822
  - # 9
    frequency:    9.9104078384
  - # 10
    frequency:   12.7944400113
  - # 11
    frequency:   13.5879031555
  - # 12
    frequency:   14.3227931967
  - # 13
    frequency:   14.5957534497
  - # 14
    frequency:   17.3943283000
  - # 15
    frequency:   17.8380203629
  - # 16
    frequency:   17.9824840790
  - # 17
    frequency:   19.7746842901
  - # 18
    frequency:   23.6204110544

- q-position: [    0.0000000,    0.1200000,    0.0000000 ]
  distance:    0.0141987
  band:
  - # 1
    frequency:    0.8341545556
  - # 2
    frequency:    1.2041122784
  - # 3
    frequency:    1.4616061687
  - # 4
    frequency:    4.7807505508
  - # 5
    frequency:    5.6942952434
  - # 6
    frequency:    8.0198906107
  - # 7
    frequency:    9.5833978296
  - # 8
    frequency:    9.7714173297
  - # 9
    frequency:    9.9351073930
  - # 10
    frequency:   12.7760531813
  - # 11
    frequency:   13.5796703748
  - # 12
    frequency:   14.3184961594
  - # 13
    frequency:   14.6301576110
  - # 14
    frequency:   17.3834039965
  - # 15
    frequency:   17.8244808995
  - # 16
    frequency:   18.0159041411
  - # 17
    frequency:   19.8621178850
  - # 18
    frequency:   23.6109390466

- q-position: [    0.0000000,    0.1300000,    0.0000000 ]
  distance:    0.0153820
  band:
  - # 1
    frequency:    1.0210436763
  - # 2
    frequency:    1.3027892202
  - # 3
    frequency:    1.5899636376
  - # 4
    frequency:    4.8425029186
  - # 5
    frequency:    5.6816459425
  - # 6
    frequency:    8.0302094962
  - # 7
    frequency:    9.6940023016
  - # 8
    frequency:    9.7557492246
  - # 9
    frequency:   10.0093562200
  - # 10
    frequency:   12.7563708259
  - # 11
    frequency:   13.5718336945
  - # 12
    frequency:   14.3133090850
  - # 13
    frequency:   14.6667768802
  - # 14
    frequency:   17.3757158333
  - # 15
    frequency:   17.8097860666
  - # 16
    frequency:   18.0503882131
  - # 17
    frequency:   19.9579795393
  - # 18
    frequency:   23.6006956262

- q-position: [    0.0000000,    0.1400000,    0.0000000 ]
  distance:    0.0165652
  band:
  - # 1
    frequency:    1.2112471289
  - # 2
    frequency:    1.4011886359
  - # 3
    frequency:    1.7190481288
  - # 4
    frequency:    4.9051540108
  - # 5
    frequency:    5.6679351672
  - # 6
    frequency:    8.0413244646
  - # 7
    frequency:    9.7197435679
  - # 8
    frequency:    9.7527620278
  - # 9
    frequency:   10.1475822047
  - # 10
    frequency:   12.7354661389
  - # 11
    frequency:   13.5644983334
  - # 12
    frequency:   14.3073221531
  - # 13
    frequency:   14.7053730661
  - # 14
    frequency:   17.3714659188
  - # 15
    frequency:   17.7939413832
  - # 16
    frequency:   18.0859282765
  - # 17
    frequency:   20.0624129148
  - # 18
    frequency:   23.5897679459

- q-position: [    0.0000000,    0.1500000,    0.0000000 ]
  distance:    0.0177484
  band:
  - # 1
    frequency:    1.4042548479
  - # 2
    frequency:    1.4997781680
  - # 3
    frequency:    1.8487392974
  - # 4
    frequency:    4.9682946255
  - # 5
    frequency:    5.6531521079
  - # 6
    frequency:    8.0532124428
  - # 7
    frequency:    9.7037344338
  - # 8
    frequency:    9.7515314087
  - # 9
    frequency:   10.3150633289
  - # 10
    frequency:   12.7134159000
  - # 11
    frequency:   13.5577521479
  - # 12
    frequency:   14.3006045869
  - # 13
    frequency:   14.7457438013
  - # 14
    frequency:   17.3708232557
  - # 15
    frequency:   17.7769527997
  - # 16
    frequency:   18.1224552825
  - # 17
    frequency:   20.1755051908
  - # 18
    frequency:   23.5782725862

- q-position: [    0.0000000,    0.1600000,    0.0000000 ]
  distance:    0.0189317
  band:
  - # 1
    frequency:    1.5849941627
  - # 2
    frequency:    1.6131292039
  - # 3
    frequency:    1.9789342477
  - # 4
    frequency:    5.0315490215
  - # 5
    frequency:    5.6372853972
  - # 6
    frequency:    8.0658423448
  - # 7
    frequency:    9.6817471948
  - # 8
    frequency:    9.7386771641
  - # 9
    frequency:   10.4872355643
  - # 10
    frequency:   12.6902994353
  - # 11
    frequency:   13.5516676488
  - # 12
    frequency:   14.2932098982
  - # 13
    frequency:   14.7877154695
  - # 14
    frequency:   17.3739207270
  - # 15
    frequency:   17.7588267041
  - # 16
    frequency:   18.1598396872
  - # 17
    frequency:   20.2972588647
  - # 18
    frequency:   23.5663575197

- q-position: [    0.0000000,    0.1700000,    0.0000000 ]
  distance:    0.0201149
  band:
  - # 1
    frequency:    1.6899060638
  - # 2
    frequency:    1.8040454262
  - # 3
    frequency:    2.1095723860
  - # 4
    frequency:    5.0945683948
  - # 5
    frequency:    5.6203231733
  - # 6
    frequency:    8.0791725303
  - # 7
    frequency:    9.6572845470
  - # 8
    frequency:    9.7181628924
  - # 9
    frequency:   10.6548446545
  - # 10
    frequency:   12.6661974601
  - # 11
    frequency:   13.5463039117
  - # 12
    frequency:   14.2851801623
  - # 13
    frequency:   14.8311372141
  - # 14
    frequency:   17.3808525899
  - # 15
    frequency:   17.7395699254
  - # 16
    frequency:   18.1978968055
  - # 17
    frequency:   20.4275638214
  - # 18
    frequency:   23.5542033459

- q-position: [    0.0000000,    0.1800000,    0.0000000 ]
  distance:    0.0212981
  band:
  - # 1
    frequency:    1.7866647228
  - # 2
    frequency:    2.0038797382
  - # 3
    frequency:    2.2407028480
  - # 4
    frequency:    5.1570256563
  - # 5
    frequency:    5.6022531665
  - # 6
    frequency:    8.0931478517
  - # 7
    frequency:    9.6304935000
  - # 8
    frequency:    9.6924064608
  - # 9
    frequency:   10.8139343960
  - # 10
    frequency:   12.6411908858
  - # 11
    frequency:   13.5417083130
  - # 12
    frequency:   14.2765492570
  - # 13
    frequency:   14.8758761633
  - # 14
    frequency:   17.3916724059
  - # 15
    frequency:   17.7191897361
  - # 16
    frequency:   18.2363962850
  - # 17
    frequency:   20.5661726782
  - # 18
    frequency:   23.5420237050

- q-position: [    0.0000000,    0.1900000,    0.0000000 ]
  distance:    0.0224814
  band:
  - # 1
    frequency:    1.8823124879
  - # 2
    frequency:    2.2042219603
  - # 3
    frequency:    2.3727136925
  - # 4
    frequency:    5.2186116263
  - # 5
    frequency:    5.5830628370
  - # 6
    frequency:    8.1076961222
  - # 7
    frequency:    9.6008405687
  - # 8
    frequency:    9.6629706338
  - # 9
    frequency:   10.9624836578
  - # 10
    frequency:   12.6153597096
  - # 11
    frequency:   13.5379180668
  - # 12
    frequency:   14.2673452427
  - # 13
    frequency:   14.9218137135
  - # 14
    frequency:   17.4063913258
  - # 15
    frequency:   17.6976938556
  - # 16
    frequency:   18.2750744733
  - # 17
    frequency:   20.7126823814
  - # 18
    frequency:   23.5300647792

- q-position: [    0.0000000,    0.2000000,    0.0000000 ]
  distance:    0.0236646
  band:
  - # 1
    frequency:    1.9771772804
  - # 2
    frequency:    2.4019497341
  - # 3
    frequency:    2.5073915525
  - # 4
    frequency:    5.2790325128
  - # 5
    frequency:    5.5627396646
  - # 6
    frequency:    8.1227237694
  - # 7
    frequency:    9.5673191765
  - # 8
    frequency:    9.6313546292
  - # 9
    frequency:   11.0994008846
  - # 10
    frequency:   12.5887821214
  - # 11
    frequency:   13.5349615639
  - # 12
    frequency:   14.2575920960
  - # 13
    frequency:   14.9688426611
  - # 14
    frequency:   17.4249766747
  - # 15
    frequency:   17.6750904529
  - # 16
    frequency:   18.3136481258
  - # 17
    frequency:   20.8665244679
  - # 18
    frequency:   23.5186037933

- q-position: [    0.0000000,    0.2100000,    0.0000000 ]
  distance:    0.0248478
  band:
  - # 1
    frequency:    2.0713032386
  - # 2
    frequency:    2.5867089616
  - # 3
    frequency:    2.6540266052
  - # 4
    frequency:    5.3380081108
  - # 5
    frequency:    5.5412719935
  - # 6
    frequency:    8.1381103083
  - # 7
    frequency:    9.5287022769
  - # 8
    frequency:    9.5990900446
  - # 9
    frequency:   11.2241609313
  - # 10
    frequency:   12.5615339740
  - # 11
    frequency:   13.5328595236
  - # 12
    frequency:   14.2473109732
  - # 13
    frequency:   15.0168649895
  - # 14
    frequency:   17.4473508306
  - # 15
    frequency:   17.6513881523
  - # 16
    frequency:   18.3518278609
  - # 17
    frequency:   21.0269653730
  - # 18
    frequency:   23.5079464295

- q-position: [    0.0000000,    0.2200000,    0.0000000 ]
  distance:    0.0260310
  band:
  - # 1
    frequency:    2.1646825806
  - # 2
    frequency:    2.7390575106
  - # 3
    frequency:    2.8310467925
  - # 4
    frequency:    5.3952680176
  - # 5
    frequency:    5.5186529077
  - # 6
    frequency:    8.1537010790
  - # 7
    frequency:    9.4841554173
  - # 8
    frequency:    9.5672746932
  - # 9
    frequency:   11.3366377072
  - # 10
    frequency:   12.5336887427
  - # 11
    frequency:   13.5316259797
  - # 12
    frequency:   14.2365211382
  - # 13
    frequency:   15.0657901585
  - # 14
    frequency:   17.4733904723
  - # 15
    frequency:   17.6265960420
  - # 16
    frequency:   18.3893300122
  - # 17
    frequency:   21.1931168730
  - # 18
    frequency:   23.4984230743

- q-position: [    0.0000000,    0.2300000,    0.0000000 ]
  distance:    0.0272143
  band:
  - # 1
    frequency:    2.2572922476
  - # 2
    frequency:    2.8734850468
  - # 3
    frequency:    3.0229676793
  - # 4
    frequency:    5.4505081866
  - # 5
    frequency:    5.4949245353
  - # 6
    frequency:    8.1692973958
  - # 7
    frequency:    9.4336524773
  - # 8
    frequency:    9.5362328523
  - # 9
    frequency:   11.4370050150
  - # 10
    frequency:   12.5053180657
  - # 11
    frequency:   13.5312691196
  - # 12
    frequency:   14.2252406511
  - # 13
    frequency:   15.1155337763
  - # 14
    frequency:   17.5029263339
  - # 15
    frequency:   17.6007237006
  - # 16
    frequency:   18.4258859753
  - # 17
    frequency:   21.3639554861
  - # 18
    frequency:   23.4903838314

- q-position: [    0.0000000,    0.2400000,    0.0000000 ]
  distance:    0.0283975
  band:
  - # 1
    frequency:    2.3491034875
  - # 2
    frequency:    3.0030436826
  - # 3
    frequency:    3.2157565901
  - # 4
    frequency:    5.4696129888
  - # 5
    frequency:    5.5039573239
  - # 6
    frequency:    8.1846428211
  - # 7
    frequency:    9.3777500506
  - # 8
    frequency:    9.5057905764
  - # 9
    frequency:   11.5256647955
  - # 10
    frequency:   12.4764928940
  - # 11
    frequency:   13.5317919975
  - # 12
    frequency:   14.2134868864
  - # 13
    frequency:   15.1660165647
  - # 14
    frequency:   17.5357434947
  - # 15
    frequency:   17.5737814360
  - # 16
    frequency:   18.4612486766
  - # 17
    frequency:   21.5383486728
  - # 18
    frequency:   23.4841922541

- q-position: [    0.0000000,    0.2500000,    0.0000000 ]
  distance:    0.0295807
  band:
  - # 1
    frequency:    2.4400851679
  - # 2
    frequency:    3.1303451387
  - # 3
    frequency:    3.4058353744
  - # 4
    frequency:    5.4435237370
  - # 5
    frequency:    5.5545830442
  - # 6
    frequency:    8.1994036565
  - # 7
    frequency:    9.3172270277
  - # 8
    frequency:    9.4756777167
  - # 9
    frequency:   11.6031889427
  - # 10
    frequency:   12.4472852052
  - # 11
    frequency:   13.5331931397
  - # 12
    frequency:   14.2012769288
  - # 13
    frequency:   15.2171635506
  - # 14
    frequency:   17.5457770109
  - # 15
    frequency:   17.5715861854
  - # 16
    frequency:   18.4951962705
  - # 17
    frequency:   21.7150851504
  - # 18
    frequency:   23.4802177895

- q-position: [    0.0000000,    0.2600000,    0.0000000 ]
  distance:    0.0307640
  band:
  - # 1
    frequency:    2.5302051635
  - # 2
    frequency:    3.2559529559
  - # 3
    frequency:    3.5916894434
  - # 4
    frequency:    5.4161170375
  - # 5
    frequency:    5.6027178961
  - # 6
    frequency:    8.2131409572
  - # 7
    frequency:    9.2529597342
  - # 8
    frequency:    9.4456957065
  - # 9
    frequency:   11.6702700415
  - # 10
    frequency:   12.4177701544
  - # 11
    frequency:   13.5354670578
  - # 12
    frequency:   14.1886278812
  - # 13
    frequency:   15.2689034316
  - # 14
    frequency:   17.5167264663
  - # 15
    frequency:   17.6101497392
  - # 16
    frequency:   18.5275335216
  - # 17
    frequency:   21.8929065821
  - # 18
    frequency:   23.4788269848

- q-position: [    0.0000000,    0.2700000,    0.0000000 ]
  distance:    0.0319472
  band:
  - # 1
    frequency:    2.6194310334
  - # 2
    frequency:    3.3799751434
  - # 3
    frequency:    3.7722768574
  - # 4
    frequency:    5.3874643589
  - # 5
    frequency:    5.6481041060
  - # 6
    frequency:    8.2252706308
  - # 7
    frequency:    9.1859554082
  - # 8
    frequency:    9.4157347093
  - # 9
    frequency:   11.7276795590
  - # 10
    frequency:   12.3880284637
  - # 11
    frequency:   13.5386046842
  - # 12
    frequency:   14.1755571086
  - # 13
    frequency:   15.3211680775
  - # 14
    frequency:   17.4866378744
  - # 15
    frequency:   17.6511010369
  - # 16
    frequency:   18.5580915200
  - # 17
    frequency:   22.0705382293
  - # 18
    frequency:   23.4803735931

- q-position: [    0.0000000,    0.2800000,    0.0000000 ]
  distance:    0.0331304
  band:
  - # 1
    frequency:    2.7077303991
  - # 2
    frequency:    3.5023802647
  - # 3
    frequency:    3.9467143983
  - # 4
    frequency:    5.3575600582
  - # 5
    frequency:    5.6905826103
  - # 6
    frequency:    8.2350083726
  - # 7
    frequency:    9.1174356036
  - # 8
    frequency:    9.3857530828
  - # 9
    frequency:   11.7762329869
  - # 10
    frequency:   12.3581488013
  - # 11
    frequency:   13.5425937408
  - # 12
    frequency:   14.1620824359
  - # 13
    frequency:   15.3738921376
  - # 14
    frequency:   17.4555238086
  - # 15
    frequency:   17.6940717201
  - # 16
    frequency:   18.5867264121
  - # 17
    frequency:   22.2467167093
  - # 18
    frequency:   23.4851878304

- q-position: [    0.0000000,    0.2900000,    0.0000000 ]
  distance:    0.0343136
  band:
  - # 1
    frequency:    2.7950711845
  - # 2
    frequency:    3.6230834890
  - # 3
    frequency:    4.1141942851
  - # 4
    frequency:    5.3263924848
  - # 5
    frequency:    5.7300221059
  - # 6
    frequency:    8.2412999730
  - # 7
    frequency:    9.0489306640
  - # 8
    frequency:    9.3557579631
  - # 9
    frequency:   11.8167615719
  - # 10
    frequency:   12.3282298812
  - # 11
    frequency:   13.5474190490
  - # 12
    frequency:   14.1482223128
  - # 13
    frequency:   15.4270127309
  - # 14
    frequency:   17.4233968152
  - # 15
    frequency:   17.7386698127
  - # 16
    frequency:   18.6133177628
  - # 17
    frequency:   22.4202135883
  - # 18
    frequency:   23.4935652077

- q-position: [    0.0000000,    0.3000000,    0.0000000 ]
  distance:    0.0354969
  band:
  - # 1
    frequency:    2.8814217844
  - # 2
    frequency:    3.7419752989
  - # 3
    frequency:    4.2739591577
  - # 4
    frequency:    5.2939489855
  - # 5
    frequency:    5.7663136429
  - # 6
    frequency:    8.2427513650
  - # 7
    frequency:    8.9823650206
  - # 8
    frequency:    9.3257928593
  - # 9
    frequency:   11.8500901418
  - # 10
    frequency:   12.2983820299
  - # 11
    frequency:   13.5530627902
  - # 12
    frequency:   14.1339959562
  - # 13
    frequency:   15.4804692006
  - # 14
    frequency:   17.3902699366
  - # 15
    frequency:   17.7844874567
  - # 16
    frequency:   18.6377670250
  - # 17
    frequency:   22.5898540227
  - # 18
    frequency:   23.5057555997

- q-position: [    0.0000000,    0.3100000,    0.0000000 ]
  distance:    0.0366801
  band:
  - # 1
    frequency:    2.9667511955
  - # 2
    frequency:    3.8589318509
  - # 3
    frequency:    4.4252966954
  - # 4
    frequency:    5.2602170799
  - # 5
    frequency:    5.7993686135
  - # 6
    frequency:    8.2376076671
  - # 7
    frequency:    8.9200854812
  - # 8
    frequency:    9.2959305252
  - # 9
    frequency:   11.8770203749
  - # 10
    frequency:   12.2687280214
  - # 11
    frequency:   13.5595047193
  - # 12
    frequency:   14.1194234789
  - # 13
    frequency:   15.5342029197
  - # 14
    frequency:   17.3561567612
  - # 15
    frequency:   17.8311098927
  - # 16
    frequency:   18.6599964330
  - # 17
    frequency:   22.7545298619
  - # 18
    frequency:   23.5219536019

- q-position: [    0.0000000,    0.3200000,    0.0000000 ]
  distance:    0.0378633
  band:
  - # 1
    frequency:    3.0510291246
  - # 2
    frequency:    3.9738181894
  - # 3
    frequency:    4.5675429757
  - # 4
    frequency:    5.2251852030
  - # 5
    frequency:    5.8291170753
  - # 6
    frequency:    8.2238890398
  - # 7
    frequency:    8.8647264826
  - # 8
    frequency:    9.2662687499
  - # 9
    frequency:   11.8983187456
  - # 10
    frequency:   12.2394030584
  - # 11
    frequency:   13.5667223344
  - # 12
    frequency:   14.1045260125
  - # 13
    frequency:   15.5881571353
  - # 14
    frequency:   17.3210714505
  - # 15
    frequency:   17.8781247132
  - # 16
    frequency:   18.6799484774
  - # 17
    frequency:   22.9132063129
  - # 18
    frequency:   23.5422919658

- q-position: [    0.0000000,    0.3300000,    0.0000000 ]
  distance:    0.0390466
  band:
  - # 1
    frequency:    3.1342260827
  - # 2
    frequency:    4.0864881312
  - # 3
    frequency:    4.7000906676
  - # 4
    frequency:    5.1888440166
  - # 5
    frequency:    5.8555062487
  - # 6
    frequency:    8.1998174860
  - # 7
    frequency:    8.8187792133
  - # 8
    frequency:    9.2369272700
  - # 9
    frequency:   11.9147083308
  - # 10
    frequency:   12.2105538790
  - # 11
    frequency:   13.5746910035
  - # 12
    frequency:   14.0893258331
  - # 13
    frequency:   15.6422768423
  - # 14
    frequency:   17.2850287654
  - # 15
    frequency:   17.9251307654
  - # 16
    frequency:   18.6975859812
  - # 17
    frequency:   23.0649198391
  - # 18
    frequency:   23.5668415789

- q-position: [    0.0000000,    0.3400000,    0.0000000 ]
  distance:    0.0402298
  band:
  - # 1
    frequency:    3.2163134685
  - # 2
    frequency:    4.1967822955
  - # 3
    frequency:    4.8223985859
  - # 4
    frequency:    5.1511906806
  - # 5
    frequency:    5.8784995613
  - # 6
    frequency:    8.1645089811
  - # 7
    frequency:    8.7838906297
  - # 8
    frequency:    9.2080445446
  - # 9
    frequency:   11.9268636790
  - # 10
    frequency:   12.1823370689
  - # 11
    frequency:   13.5833840425
  - # 12
    frequency:   14.0738465014
  - # 13
    frequency:   15.6965086799
  - # 14
    frequency:   17.2480440966
  - # 15
    frequency:   17.9717460789
  - # 16
    frequency:   18.7128926991
  - # 17
    frequency:   23.2087605576
  - # 18
    frequency:   23.5956259431

- q-position: [    0.0000000,    0.3500000,    0.0000000 ]
  distance:    0.0414130
  band:
  - # 1
    frequency:    3.2972636442
  - # 2
    frequency:    4.3045248792
  - # 3
    frequency:    4.9339854508
  - # 4
    frequency:    5.1122526510
  - # 5
    frequency:    5.8980768423
  - # 6
    frequency:    8.1185354167
  - # 7
    frequency:    8.7602879794
  - # 8
    frequency:    9.1797735193
  - # 9
    frequency:   11.9354079930
  - # 10
    frequency:   12.1549167577
  - # 11
    frequency:   13.5927727369
  - # 12
    frequency:   14.0581130293
  - # 13
    frequency:   15.7508008418
  - # 14