162  
22   

1    
  0.0000000000000000   0.0200000000000000   0.0000000000000000
   0.0000397996   -0.0076309299   -0.0006251398
   0.0000376196   -0.0015546199   -0.0007520498
   0.0000421996   -0.0015549099   -0.0007522598
   0.0000404596    0.0005259601   -0.0000133498
   0.0001786196    0.0002591301    0.0000247402
  -0.0000980604    0.0002591801    0.0000247102
   0.0000399396    0.0005534401   -0.0000205898
  -0.0000974304    0.0002889001    0.0000160802
   0.0001772696    0.0002890601    0.0000162402
   0.0000401896   -0.0003822399   -0.0000023798
  -0.0000397604   -0.0002778899    0.0000349802
   0.0001205596   -0.0002777399    0.0000350402
   0.0000408596    0.0001238401    0.0000771602
   0.0000571196    0.0001150601    0.0000567002
   0.0000241896    0.0001149701    0.0000567502
   0.0000403796    0.0002817601   -0.0002070098
   0.0000056796    0.0001347901   -0.0000548598
   0.0000748996    0.0001349201   -0.0000549398
   0.0000398196   -0.0003897799    0.0000278002
   0.0001206596   -0.0002861299    0.0000650902
  -0.0000406204   -0.0002860999    0.0000651402
   0.0000403896    0.0002670701   -0.0001937098
   0.0000750396    0.0001207201   -0.0000424998
   0.0000055396    0.0001206601   -0.0000425098
   0.0000399296    0.0001473401    0.0000992502
   0.0000241796    0.0001382601    0.0000783802
   0.0000558496    0.0001383901    0.0000784302
   0.0002088096    0.0004487201    0.0007156302
  -0.0003212004    0.0004486801    0.0007155202
  -0.0000560904    0.0000216601    0.0001412802
  -0.0010375804    0.0004167501   -0.0006964598
   0.0009244796    0.0004167401   -0.0006963898
  -0.0000565304   -0.0000121799   -0.0001186798
  -0.0000588204    0.0002827501    0.0000683002
  -0.0000540304    0.0002825801    0.0000684602
  -0.0000568704    0.0002210201    0.0000344802
   0.0009209696    0.0004440101   -0.0007193798
  -0.0010342004    0.0004440401   -0.0007191498
  -0.0000564104    0.0000180901   -0.0001458798
  -0.0003266104    0.0004225101    0.0006963302
   0.0002126596    0.0004225401    0.0006960502
  -0.0000570604   -0.0000043899    0.0001193902
  -0.0000551504    0.0002789201    0.0000428702
  -0.0000587804    0.0002788501    0.0000428602
  -0.0000571104    0.0002170501    0.0000082902
  -0.0000543504   -0.0000520799   -0.0000146298
  -0.0000589004   -0.0000520799   -0.0000145698
  -0.0000565204   -0.0000259199    0.0000196102
  -0.0000596004   -0.0000795399   -0.0000183298
  -0.0000543304   -0.0000794899   -0.0000182998
  -0.0000571004   -0.0000536199    0.0000157102
  -0.0000574104    0.0001482301    0.0000311202
  -0.0000565404    0.0001482901    0.0000310502
  -0.0000571504    0.0001379401    0.0000309302
  -0.0004801904    0.0003398101   -0.0002151898
   0.0004681796    0.0003391701   -0.0002158598
  -0.0000055304   -0.0007957199   -0.0009184098
   0.0000128596   -0.0010775099   -0.0010547898
  -0.0000298304   -0.0010774799   -0.0010548198
  -0.0000084004   -0.0010142799   -0.0010076198
  -0.0001619504   -0.0009145199   -0.0010403698
   0.0001495596   -0.0009145599   -0.0010404298
  -0.0000061604   -0.0006988199   -0.0009559898
   0.0000067096   -0.0008558399   -0.0008725298
  -0.0000235304   -0.0008558599   -0.0008725898
  -0.0000084304   -0.0008951299   -0.0009075998
  -0.0000109004   -0.0009515099   -0.0009283498
  -0.0000114504   -0.0009514599   -0.0009283398
  -0.0000111404   -0.0009428799   -0.0009224698
  -0.0000477204   -0.0006561899   -0.0008476798
   0.0000296396   -0.0006562199   -0.0008476598
  -0.0000090104   -0.0006611799   -0.0008853498
   0.0001377496   -0.0006843399   -0.0003814098
  -0.0001500904   -0.0006844499   -0.0003814998
  -0.0000062704   -0.0008226699   -0.0005642998
   0.0000308196   -0.0009978299   -0.0006493998
  -0.0000489504   -0.0009978599   -0.0006494198
  -0.0000089804   -0.0009570699   -0.0006481598
  -0.0000310004   -0.0007123299   -0.0007218798
   0.0000170396   -0.0007124399   -0.0007218998
  -0.0000070404   -0.0006966399   -0.0006936298
   0.0000156196    0.0016772401   -0.0013165998
  -0.0001630204    0.0008877901   -0.0007629298
   0.0001943496    0.0008878701   -0.0007628698
   0.0000152796    0.0008405801   -0.0007753598
  -0.0000045004    0.0008628201   -0.0007813098
   0.0000349396    0.0008628801   -0.0007812998
   0.0000129796    0.0005818501   -0.0009781798
   0.0001125696    0.0007219101   -0.0008688298
  -0.0000867504    0.0007218701   -0.0008688398
   0.0000176096    0.0008574601   -0.0013078398
  -0.0000791304    0.0007943101   -0.0012295198
   0.0001142096    0.0007942801   -0.0012296198
   0.0000173996    0.0008960801   -0.0010311898
   0.0000127596    0.0009070801   -0.0010274998
   0.0000220696    0.0009070501   -0.0010274698
   0.0000149396    0.0003606501   -0.0005878898
   0.0000629996    0.0007891601   -0.0010033998
  -0.0000328904    0.0007890401   -0.0010033998
   0.0000182696    0.0007309401   -0.0007403898
   0.0000038196    0.0007270101   -0.0007505898
   0.0000327196    0.0007270801   -0.0007506598
   0.0000178996    0.0009118301   -0.0007427798
   0.0000126696    0.0009165901   -0.0007463598
   0.0000231996    0.0009166501   -0.0007463398
   0.0000157496    0.0007947701   -0.0007846398
   0.0000191196    0.0007916901   -0.0007826198
   0.0000123496    0.0007917501   -0.0007826798
   0.0004416196    0.0019656801    0.0014028202
  -0.0004542204    0.0019652201    0.0014022302
  -0.0000067704    0.0008409101    0.0007186102
   0.0001478196    0.0006357001    0.0005865202
  -0.0001657304    0.0006357201    0.0005866202
  -0.0000089804    0.0008524201    0.0006705002
  -0.0000274804    0.0008237501    0.0005846602
   0.0000149396    0.0008237201    0.0005847202
  -0.0000062104    0.0008866101    0.0006320902
  -0.0001523704    0.0009414301    0.0011687602
   0.0001344296    0.0009413401    0.0011686102
  -0.0000090104    0.0008028201    0.0009863002
   0.0000131196    0.0008147801    0.0008044602
  -0.0000356804    0.0008148001    0.0008044602
  -0.0000112304    0.0008307201    0.0008332702
  -0.0000486204    0.0009075301    0.0009035302
   0.0000312596    0.0009076601    0.0009035402
  -0.0000087004    0.0009486501    0.0009049302
  -0.0000209204    0.0007837701    0.0010293202
   0.0000084796    0.0007837601    0.0010293702
  -0.0000062404    0.0007443001    0.0009939002
   0.0000296396    0.0008974801    0.0010586202
  -0.0000471104    0.0008974701    0.0010586402
  -0.0000086404    0.0008925601    0.0010209602
  -0.0000060804    0.0009659801    0.0009892002
  -0.0000057404    0.0009660001    0.0009891602
  -0.0000059704    0.0009742901    0.0009946402
   0.0000156896    0.0001109601    0.0002552802
   0.0001934296   -0.0006288399    0.0007532802
  -0.0001622104   -0.0006288199    0.0007533502
   0.0000175396   -0.0012345499    0.0005492502
  -0.0000822004   -0.0010925599    0.0006602902
   0.0001171896   -0.0010925799    0.0006604702
   0.0000182296   -0.0009249199    0.0007662402
   0.0000374096   -0.0009028599    0.0007603102
  -0.0000007604   -0.0009028399    0.0007602302
   0.0000152996   -0.0008110999    0.0010250902
   0.0000295296   -0.0008149199    0.0010150202
   0.0000009696   -0.0008150199    0.0010149202
   0.0000173396   -0.0010288199    0.0009813502
   0.0000140796   -0.0010320299    0.0009833102
   0.0000206396   -0.0010319699    0.0009831102
   0.0000179496   -0.0008403599    0.0010095502
   0.0000231196   -0.0008355099    0.0010061102
   0.0000127596   -0.0008354299    0.0010062302
   0.0000128996   -0.0006737899    0.0005070602
   0.0001103996   -0.0007359899    0.0005844402
  -0.0000844804   -0.0007359999    0.0005844702
   0.0000150196   -0.0014924699    0.0012653102
  -0.0000329004   -0.0010663099    0.0008525802
   0.0000630996   -0.0010664199    0.0008525602
   0.0000157496   -0.0008697599    0.0007933402
   0.0000203596   -0.0008589099    0.0007969202
   0.0000111496   -0.0008588699    0.0007969102

1    
  0.0000000000000000  -0.0200000000000000   0.0000000000000000
   0.0000400304    0.0076303502    0.0006179801
   0.0000375704    0.0015480402    0.0007452001
   0.0000422504    0.0015478102    0.0007450601
   0.0000404204   -0.0005009798    0.0000171201
  -0.0000970696   -0.0002365498   -0.0000197399
   0.0001776104   -0.0002365898   -0.0000196599
   0.0000400204   -0.0004730798    0.0000102301
   0.0001781604   -0.0002063298   -0.0000281499
  -0.0000983196   -0.0002063098   -0.0000280299
   0.0000402504    0.0003863102    0.0000249601
   0.0001208804    0.0002827602   -0.0000124499
  -0.0000400696    0.0002828402   -0.0000123599
   0.0000408204   -0.0000926498   -0.0000448399
   0.0000246704   -0.0000837598   -0.0000238799
   0.0000566404   -0.0000839598   -0.0000240199
   0.0000402804   -0.0002139498    0.0002467801
   0.0000749004   -0.0000677298    0.0000956601
   0.0000057704   -0.0000676398    0.0000955201
   0.0000398004    0.0003786802    0.0000551401
  -0.0000400596    0.0002745102    0.0000177401
   0.0001201204    0.0002744902    0.0000177601
   0.0000404204   -0.0002287798    0.0002601501
   0.0000059004   -0.0000819498    0.0001079101
   0.0000747504   -0.0000819398    0.0001079601
   0.0000399804   -0.0000689698   -0.0000227599
   0.0000565504   -0.0000604998   -0.0000023299
   0.0000234404   -0.0000604498   -0.0000022699
  -0.0003258196   -0.0004175898   -0.0006909999
   0.0002135004   -0.0004176198   -0.0006909299
  -0.0000561996    0.0000089902   -0.0001144099
   0.0009216504   -0.0004515098    0.0007132801
  -0.0010347696   -0.0004513998    0.0007133501
  -0.0000564996   -0.0000254398    0.0001396801
  -0.0000547596   -0.0002047198   -0.0000406199
  -0.0000582396   -0.0002047698   -0.0000404299
  -0.0000567596   -0.0001430198   -0.0000061499
  -0.0010377296   -0.0004239998    0.0006898201
   0.0009244604   -0.0004238198    0.0006897601
  -0.0000564896    0.0000049602    0.0001120701
   0.0002080704   -0.0004441998   -0.0007108899
  -0.0003220196   -0.0004441098   -0.0007107999
  -0.0000569096   -0.0000169798   -0.0001366199
  -0.0000591296   -0.0002083598   -0.0000662599
  -0.0000548296   -0.0002083898   -0.0000663299
  -0.0000571296   -0.0001466898   -0.0000324299
  -0.0000591196    0.0000816902    0.0000924301
  -0.0000541596    0.0000816302    0.0000924701
  -0.0000564796    0.0000558902    0.0000585301
  -0.0000548996    0.0000540802    0.0000888201
  -0.0000590696    0.0000542002    0.0000887701
  -0.0000570696    0.0000280902    0.0000547001
  -0.0000574296   -0.0000876198    0.0000285201
  -0.0000565396   -0.0000876898    0.0000284301
  -0.0000570496   -0.0000773398    0.0000291301
   0.0004420504   -0.0022906098   -0.0017269199
  -0.0004523096   -0.0022898498   -0.0017262199
  -0.0000055396   -0.0011657098   -0.0010431199
  -0.0000294096   -0.0007388598   -0.0008753699
   0.0000126404   -0.0007388998   -0.0008753599
  -0.0000084996   -0.0008012498   -0.0009226299
   0.0001507504   -0.0003745198   -0.0008655899
  -0.0001631596   -0.0003745198   -0.0008655899
  -0.0000061896   -0.0005914198   -0.0009494799
  -0.0000231196   -0.0010744498   -0.0009437899
   0.0000063004   -0.0010744198   -0.0009438799
  -0.0000084996   -0.0010349498   -0.0009084999
  -0.0000113596   -0.0008425098   -0.0008658099
  -0.0000108796   -0.0008425498   -0.0008657699
  -0.0000111296   -0.0008508098   -0.0008712899
   0.0000291604   -0.0006377298   -0.0009627899
  -0.0000471496   -0.0006376998   -0.0009627599
  -0.0000090496   -0.0006328098   -0.0009251299
  -0.0001496196   -0.0012204398   -0.0009080199
   0.0001372504   -0.0012205098   -0.0009080099
  -0.0000062496   -0.0010819598   -0.0007254399
  -0.0000490796   -0.0008118598   -0.0006438499
   0.0000309504   -0.0008117898   -0.0006438699
  -0.0000089796   -0.0008527798   -0.0006453199
   0.0000174604   -0.0005470998   -0.0005368299
  -0.0000314096   -0.0005470998   -0.0005368099
  -0.0000070296   -0.0005630198   -0.0005656399
   0.0000156104   -0.0002124198   -0.0003561899
   0.0001933704    0.0005280902   -0.0008539899
  -0.0001621196    0.0005281302   -0.0008540699
   0.0000152104    0.0011458902   -0.0008958599
   0.0000343904    0.0011238302   -0.0008897399
  -0.0000038096    0.0011239302   -0.0008897699
   0.0000129404    0.0009910802   -0.0006547799
  -0.0000867596    0.0008486402   -0.0007658599
   0.0001125604    0.0008485502   -0.0007658899
   0.0000175804    0.0005680902   -0.0007517799
   0.0001149004    0.0006303202   -0.0008282399
  -0.0000797396    0.0006302802   -0.0008283499
   0.0000173204    0.0010850102   -0.0010602899
   0.0000219504    0.0010744002   -0.0010638299
   0.0000128004    0.0010744202   -0.0010638299
   0.0000150904    0.0012490002   -0.0015086799
  -0.0000327996    0.0008230102   -0.0010958199
   0.0000627804    0.0008229802   -0.0010958299
   0.0000182904    0.0006816702   -0.0008042099
   0.0000325904    0.0006856302   -0.0007940499
   0.0000039604    0.0006855402   -0.0007941099
   0.0000179204    0.0010372402   -0.0008128399
   0.0000230604    0.0010323702   -0.0008093399
   0.0000127204    0.0010324202   -0.0008092599
   0.0000157704    0.0007619302   -0.0007658599
   0.0000124404    0.0007651502   -0.0007677599
   0.0000190004    0.0007651502   -0.0007677999
  -0.0004819196   -0.0006642998   -0.0001101299
   0.0004676804   -0.0006636698   -0.0001094399
  -0.0000067696    0.0004710502    0.0005938201
  -0.0001645796    0.0011753502    0.0007614601
   0.0001466304    0.0011752302    0.0007613601
  -0.0000090496    0.0009598802    0.0006770301
   0.0000151004    0.0011630402    0.0007642201
  -0.0000277196    0.0011629602    0.0007642101
  -0.0000061496    0.0010995102    0.0007169001
   0.0001349704    0.0004054002    0.0006424001
  -0.0001529596    0.0004054502    0.0006424501
  -0.0000090096    0.0005438102    0.0008253501
  -0.0000351596    0.0009800402    0.0009893301
   0.0000126204    0.0009801402    0.0009893401
  -0.0000112696    0.0009642702    0.0009611601
   0.0000310904    0.0010940202    0.0009091901
  -0.0000484596    0.0010940802    0.0009091901
  -0.0000087196    0.0010533602    0.0009080001
   0.0000088104    0.0005651602    0.0009579401
  -0.0000212596    0.0005652102    0.0009578701
  -0.0000063196    0.0006044202    0.0009929401
  -0.0000473196    0.0009158402    0.0009436901
   0.0000299004    0.0009158002    0.0009436701
  -0.0000086996    0.0009209102    0.0009812801
  -0.0000055396    0.0010747602    0.0010517301
  -0.0000062896    0.0010748002    0.0010516601
  -0.0000059996    0.0010661002    0.0010457501
   0.0000156604   -0.0017770298    0.0012165701
  -0.0001628596   -0.0009887498    0.0006622701
   0.0001941004   -0.0009886498    0.0006622201
   0.0000175004   -0.0008261898    0.0008723701
   0.0001171304   -0.0009655298    0.0007630401
  -0.0000820596   -0.0009656998    0.0007630901
   0.0000182904   -0.0006192698    0.0006458301
  -0.0000013396   -0.0006419098    0.0006518001
   0.0000378804   -0.0006419298    0.0006517601
   0.0000152904   -0.0008602098    0.0009613701
   0.0000009204   -0.0008565798    0.0009715401
   0.0000295904   -0.0008564998    0.0009715101
   0.0000174004   -0.0010617398    0.0010000301
   0.0000207104   -0.0010587198    0.0009980601
   0.0000140304   -0.0010586798    0.0009979701
   0.0000179204   -0.0007154798    0.0009396101
   0.0000128004   -0.0007202998    0.0009431101
   0.0000230404   -0.0007203898    0.0009432201
   0.0000129404   -0.0009633498    0.0010647801
  -0.0000836596   -0.0009001598    0.0009857201
   0.0001095604   -0.0009001998    0.0009857701
   0.0000149704   -0.0006038798    0.0003443401
   0.0000630704   -0.0010324298    0.0007601001
  -0.0000329996   -0.0010323698    0.0007600701
   0.0000157804   -0.0006809098    0.0007643501
   0.0000110104   -0.0006919398    0.0007606801
   0.0000204804   -0.0006919798    0.0007606901

1    
  0.0200000000000000   0.0000000000000000   0.0000000000000000
  -0.0128223799   -0.0000046698   -0.0000046698
   0.0031369701   -0.0000037298   -0.0000037298
   0.0030906701   -0.0000035398   -0.0000035398
  -0.0000464999    0.0000125402    0.0000012902
   0.0000816701    0.0001538902   -0.0000768998
   0.0000814501   -0.0001289298    0.0000807502
  -0.0000467599    0.0000399502   -0.0000055598
   0.0000810801   -0.0001007798    0.0000724102
   0.0000808901    0.0001819602   -0.0000850098
  -0.0000464999    0.0000012902    0.0000125402
   0.0000816701   -0.0000768998    0.0001538902
   0.0000814501    0.0000807502   -0.0001289298
   0.0000057701    0.0000153002    0.0000153002
   0.0000592001    0.0000333002    0.0000333002
   0.0000582601   -0.0000044798   -0.0000044798
   0.0000164201    0.0000348602    0.0000202002
   0.0000513301   -0.0000003798    0.0000557802
   0.0000496301    0.0000693902   -0.0000144598
  -0.0000467599   -0.0000055598    0.0000399502
   0.0000810801    0.0000724102   -0.0001007798
   0.0000808901   -0.0000850098    0.0001819602
   0.0000164201    0.0000202002    0.0000348602
   0.0000513301    0.0000557802   -0.0000003798
   0.0000496301   -0.0000144598    0.0000693902
   0.0000044701    0.0000402302    0.0000402302
   0.0000584801    0.0000215502    0.0000215502
   0.0000581301    0.0000593302    0.0000593302
  -0.0003093399    0.0009886502    0.0009886502
  -0.0003072199   -0.0009678698   -0.0009678698
   0.0003846801    0.0000102402    0.0000102402
  -0.0003075699   -0.0002871698    0.0002806302
  -0.0003127999    0.0002523402   -0.0002590898
   0.0003876401   -0.0000166298    0.0000093902
  -0.0000621299    0.0000399802    0.0000178902
  -0.0000603899    0.0000391302    0.0000115602
  -0.0000485299    0.0000397802    0.0000141802
  -0.0003075699    0.0002806302   -0.0002871698
  -0.0003127999   -0.0002590898    0.0002523402
   0.0003876401    0.0000093902   -0.0000166298
  -0.0003106599   -0.0009852298   -0.0009852298
  -0.0003078299    0.0009717602    0.0009717602
   0.0003840401   -0.0000072498   -0.0000072498
  -0.0000623899    0.0000360402   -0.0000181898
  -0.0000609799    0.0000365702   -0.0000119398
  -0.0000485699    0.0000353202   -0.0000143798
  -0.0000621299    0.0000178902    0.0000399802
  -0.0000603899    0.0000115602    0.0000391302
  -0.0000485299    0.0000141802    0.0000397802
  -0.0000623899   -0.0000181898    0.0000360402
  -0.0000609799   -0.0000119398    0.0000365702
  -0.0000485699   -0.0000143798    0.0000353202
  -0.0000571099    0.0000311602    0.0000311602
  -0.0000565199    0.0000308802    0.0000308802
  -0.0000572299    0.0000314702    0.0000314702
   0.0018126001   -0.0013562598   -0.0013562598
   0.0019065901   -0.0005406598   -0.0005406598
  -0.0005505399   -0.0009807198   -0.0009807198
   0.0000164101   -0.0008946698   -0.0009545498
   0.0000169201   -0.0009213198   -0.0009751598
  -0.0000621699   -0.0009082098   -0.0009651698
   0.0000582501   -0.0006834098   -0.0009214798
   0.0000593001   -0.0006067798   -0.0009840398
  -0.0001143399   -0.0006446998   -0.0009524198
   0.0000164101   -0.0009545498   -0.0008946698
   0.0000169201   -0.0009751598   -0.0009213198
  -0.0000621699   -0.0009651698   -0.0009082098
  -0.0000101399   -0.0008882298   -0.0008882298
  -0.0000094699   -0.0009053398   -0.0009053398
  -0.0000126699   -0.0008968998   -0.0008968998
  -0.0000003599   -0.0006468898   -0.0008918898
   0.0000004701   -0.0006477398   -0.0009185598
  -0.0000297899   -0.0006472598   -0.0009053298
   0.0000582501   -0.0009214798   -0.0006834098
   0.0000593001   -0.0009840398   -0.0006067798
  -0.0001143399   -0.0009524198   -0.0006446998
  -0.0000003599   -0.0008918898   -0.0006468898
   0.0000004701   -0.0009185598   -0.0006477398
  -0.0000297899   -0.0009053298   -0.0006472598
   0.0000238501   -0.0006516898   -0.0006516898
   0.0000240901   -0.0006074598   -0.0006074598
  -0.0000684699   -0.0006294698   -0.0006294698
   0.0010322801    0.0007018702   -0.0008024298
  -0.0002714299    0.0004061502   -0.0005066898
  -0.0002692899    0.0010070502   -0.0011077798
   0.0000360401    0.0009929002   -0.0008353598
   0.0000048501    0.0009889502   -0.0008367098
   0.0000052601    0.0009972202   -0.0008344598
   0.0004185601    0.0007863902   -0.0008176098
  -0.0002238899    0.0010285002   -0.0008253698
  -0.0002249399    0.0005429502   -0.0008096998
   0.0004232301    0.0007121802   -0.0010301598
  -0.0002193499    0.0007198902   -0.0012723098
  -0.0002202599    0.0007042002   -0.0007866598
   0.0000289601    0.0009906402   -0.0010453098
   0.0000112101    0.0009872602   -0.0010491798
   0.0000120101    0.0009940502   -0.0010416298
   0.0000081601    0.0008050902   -0.0010483698
   0.0000040001    0.0008978202   -0.0011411298
   0.0000039001    0.0007144702   -0.0009578098
   0.0000390701    0.0007061302   -0.0007722498
   0.0000078501    0.0007073902   -0.0007680898
   0.0000082001    0.0007051602   -0.0007764798
   0.0000243501    0.0009744102   -0.0007778098
   0.0000143001    0.0009747102   -0.0007779898
   0.0000150401    0.0009741502   -0.0007776298
   0.0000276501    0.0007783802   -0.0007752098
   0.0000095201    0.0007822402   -0.0007718798
   0.0000102501    0.0007747102   -0.0007786298
   0.0018123901    0.0010326602    0.0010326602
   0.0019065501    0.0002151202    0.0002151202
  -0.0005517999    0.0006562302    0.0006562302
   0.0000555101    0.0009444902    0.0006427002
   0.0000564201    0.0008676502    0.0007053202
  -0.0001170699    0.0009055902    0.0006736302
   0.0000185901    0.0009799502    0.0006642702
   0.0000192601    0.0010067102    0.0006845102
  -0.0000600599    0.0009936602    0.0006747602
   0.0000555101    0.0006427002    0.0009444902
   0.0000564201    0.0007053202    0.0008676502
  -0.0001170699    0.0006736302    0.0009055902
   0.0000196501    0.0009193702    0.0009193702
   0.0000197001    0.0008750202    0.0008750202
  -0.0000728499    0.0008971302    0.0008971302
  -0.0000000799    0.0009875702    0.0009063702
   0.0000006101    0.0010144602    0.0009072402
  -0.0000293299    0.0010011302    0.0009067902
   0.0000185901    0.0006642702    0.0009799502
   0.0000192601    0.0006845102    0.0010067102
  -0.0000600599    0.0006747602    0.0009936602
  -0.0000000799    0.0009063702    0.0009875702
   0.0000006101    0.0009072402    0.0010144602
  -0.0000293299    0.0009067902    0.0010011302
  -0.0000051299    0.0010114802    0.0010114802
  -0.0000042899    0.0010285902    0.0010285902
  -0.0000075699    0.0010201402    0.0010201402
   0.0010322801   -0.0008024298    0.0007018702
  -0.0002714299   -0.0005066898    0.0004061502
  -0.0002692899   -0.0011077798    0.0010070502
   0.0004232301   -0.0010301598    0.0007121802
  -0.0002193499   -0.0012723098    0.0007198902
  -0.0002202599   -0.0007866598    0.0007042002
   0.0000390701   -0.0007722498    0.0007061302
   0.0000078501   -0.0007680898    0.0007073902
   0.0000082001   -0.0007764798    0.0007051602
   0.0000360401   -0.0008353598    0.0009929002
   0.0000048501   -0.0008367098    0.0009889502
   0.0000052601   -0.0008344598    0.0009972202
   0.0000289601   -0.0010453098    0.0009906402
   0.0000112101   -0.0010491798    0.0009872602
   0.0000120101   -0.0010416298    0.0009940502
   0.0000243501   -0.0007778098    0.0009744102
   0.0000143001   -0.0007779898    0.0009747102
   0.0000150401   -0.0007776298    0.0009741502
   0.0004185601   -0.0008176098    0.0007863902
  -0.0002238899   -0.0008253698    0.0010285002
  -0.0002249399   -0.0008096998    0.0005429502
   0.0000081601   -0.0010483698    0.0008050902
   0.0000040001   -0.0011411298    0.0008978202
   0.0000039001   -0.0009578098    0.0007144702
   0.0000276501   -0.0007752098    0.0007783802
   0.0000095201   -0.0007718798    0.0007822402
   0.0000102501   -0.0007786298    0.0007747102

1    
 -0.0200000000000000   0.0000000000000000   0.0000000000000000
   0.0129077001   -0.0000045702   -0.0000045702
  -0.0030149799   -0.0000033602   -0.0000033602
  -0.0030589699   -0.0000034602   -0.0000034602
   0.0001290101    0.0000132398    0.0000036998
  -0.0000007499   -0.0001293002    0.0000836298
  -0.0000020699    0.0001560298   -0.0000743902
   0.0001285701    0.0000393698   -0.0000070502
  -0.0000015199    0.0001820498   -0.0000868602
  -0.0000023399   -0.0001029102    0.0000710498
   0.0001290101    0.0000036998    0.0000132398
  -0.0000007499    0.0000836298   -0.0001293002
  -0.0000020699   -0.0000743902    0.0001560298
   0.0000762701    0.0000125498    0.0000125498
   0.0000226701   -0.0000075002   -0.0000075002
   0.0000223401    0.0000308198    0.0000308198
   0.0000655301    0.0000341198    0.0000192298
   0.0000303101    0.0000698398   -0.0000159102
   0.0000292501   -0.0000023102    0.0000555198
   0.0001285701   -0.0000070502    0.0000393698
  -0.0000015199   -0.0000868602    0.0001820498
  -0.0000023399    0.0000710498   -0.0001029102
   0.0000655301    0.0000192298    0.0000341198
   0.0000303101   -0.0000159102    0.0000698398
   0.0000292501    0.0000555198   -0.0000023102
   0.0000758401    0.0000425798    0.0000425798
   0.0000215501    0.0000619898    0.0000619898
   0.0000222601    0.0000239398    0.0000239398
   0.0001963601   -0.0009691902   -0.0009691902
   0.0001974301    0.0009893998    0.0009893998
  -0.0004990899    0.0000089798    0.0000089798
   0.0002005601    0.0002522298   -0.0002590302
   0.0001954701   -0.0002894602    0.0002824398
  -0.0005021599   -0.0000177802    0.0000105998
  -0.0000528199    0.0000409598    0.0000146398
  -0.0000515999    0.0000421598    0.0000211298
  -0.0000649899    0.0000414398    0.0000176898
   0.0002005601   -0.0002590302    0.0002522298
   0.0001954701    0.0002824398   -0.0002894602
  -0.0005021599    0.0000105998   -0.0000177802
   0.0001949801    0.0009744798    0.0009744798
   0.0001974201   -0.0009847202   -0.0009847202
  -0.0005000099   -0.0000047902   -0.0000047902
  -0.0000531799    0.0000339198   -0.0000133002
  -0.0000521999    0.0000331098   -0.0000202702
  -0.0000650199    0.0000325698   -0.0000165602
  -0.0000528199    0.0000146398    0.0000409598
  -0.0000515999    0.0000211298    0.0000421598
  -0.0000649899    0.0000176898    0.0000414398
  -0.0000531799   -0.0000133002    0.0000339198
  -0.0000521999   -0.0000202702    0.0000331098
  -0.0000650199   -0.0000165602    0.0000325698
  -0.0000585499    0.0000301498    0.0000301498
  -0.0000576799    0.0000301798    0.0000301798
  -0.0000561299    0.0000302198    0.0000302198
  -0.0019191199   -0.0005399202   -0.0005399202
  -0.0018227599   -0.0013553102   -0.0013553102
   0.0005396901   -0.0009807902   -0.0009807902
  -0.0000336699   -0.0009216302   -0.0009753602
  -0.0000334399   -0.0008945402   -0.0009546702
   0.0000456001   -0.0009081302   -0.0009651802
  -0.0000718099   -0.0006067702   -0.0009839402
  -0.0000708699   -0.0006833802   -0.0009213802
   0.0001021001   -0.0006446002   -0.0009522602
  -0.0000336699   -0.0009753602   -0.0009216302
  -0.0000334399   -0.0009546702   -0.0008945402
   0.0000456001   -0.0009651802   -0.0009081302
  -0.0000126499   -0.0009052402   -0.0009052402
  -0.0000121399   -0.0008881202   -0.0008881202
  -0.0000098399   -0.0008966502   -0.0008966502
  -0.0000182799   -0.0006478502   -0.0009185902
  -0.0000176699   -0.0006469602   -0.0008919302
   0.0000115401   -0.0006472102   -0.0009052302
  -0.0000718099   -0.0009839402   -0.0006067702
  -0.0000708699   -0.0009213802   -0.0006833802
   0.0001021001   -0.0009522602   -0.0006446002
  -0.0000182799   -0.0009185902   -0.0006478502
  -0.0000176699   -0.0008919302   -0.0006469602
   0.0000115401   -0.0009052302   -0.0006472102
  -0.0000381399   -0.0006074802   -0.0006074802
  -0.0000379099   -0.0006516102   -0.0006516102
   0.0000547901   -0.0006294202   -0.0006294202
  -0.0010012299    0.0007016098   -0.0008021802
   0.0003006401    0.0010071998   -0.0011079202
   0.0003028501    0.0004063898   -0.0005069502
  -0.0000055899    0.0009929498   -0.0008355202
   0.0000254101    0.0009972398   -0.0008346802
   0.0000256301    0.0009889198   -0.0008369502
  -0.0003928599    0.0007865498   -0.0008176802
   0.0002507601    0.0005429498   -0.0008095302
   0.0002497901    0.0010287398   -0.0008255602
  -0.0003881999    0.0007119798   -0.0010302802
   0.0002552801    0.0007038798   -0.0007867002
   0.0002545001    0.0007199198   -0.0012724902
   0.0000056701    0.0009906898   -0.0010452302
   0.0000229701    0.0009941198   -0.0010413502
   0.0000235701    0.0009872998   -0.0010490902
   0.0000217901    0.0008049198   -0.0010481402
   0.0000259001    0.0007142898   -0.0009576002
   0.0000259601    0.0008983898   -0.0011416602
  -0.0000026199    0.0007061398   -0.0007721302
   0.0000284601    0.0007052698   -0.0007763602
   0.0000287001    0.0007075398   -0.0007680202
   0.0000114501    0.0009745798   -0.0007778602
   0.0000208901    0.0009743998   -0.0007777102
   0.0000215501    0.0009749198   -0.0007781302
   0.0000038501    0.0007782798   -0.0007752702
   0.0000214501    0.0007744398   -0.0007786902
   0.0000219201    0.0007821898   -0.0007718602
  -0.0019214299    0.0002141598    0.0002141598
  -0.0018247699    0.0010315498    0.0010315498
   0.0005386901    0.0006562198    0.0006562198
  -0.0000744299    0.0008675698    0.0007050998
  -0.0000737099    0.0009444098    0.0006424498
   0.0000993001    0.0009054998    0.0006732998
  -0.0000315699    0.0010070798    0.0006847798
  -0.0000311899    0.0009800398    0.0006641998
   0.0000476301    0.0009936598    0.0006746998
  -0.0000744299    0.0007050998    0.0008675698
  -0.0000737099    0.0006424498    0.0009444098
   0.0000993001    0.0006732998    0.0009054998
  -0.0000422699    0.0008752198    0.0008752198
  -0.0000422899    0.0009193798    0.0009193798
   0.0000505001    0.0008971598    0.0008971598
  -0.0000179799    0.0010144998    0.0009073998
  -0.0000172799    0.0009877598    0.0009065098
   0.0000118401    0.0010011898    0.0009068598
  -0.0000315699    0.0006847798    0.0010070798
  -0.0000311899    0.0006641998    0.0009800398
   0.0000476301    0.0006746998    0.0009936598
  -0.0000179799    0.0009073998    0.0010144998
  -0.0000172799    0.0009065098    0.0009877598
   0.0000118401    0.0009068598    0.0010011898