phonopy:
  version: "2.38.2"
  calculator: qe
  frequency_unit_conversion_factor: 15.633302
  symmetry_tolerance: 1.00000e-05
  configuration:
    cell_filename: "scf.in"
    create_displacements: ".true."
    primitive_axes: "AUTO"
    dim: "3 3 3"
    calculator: "qe"

physical_unit:
  atomic_mass: "AMU"
  length: "au"

space_group:
  type: "Cm"
  number: 8
  Hall_symbol: "C -2y"

primitive_matrix:
- [  0.000000000000000,  0.000000000000000,  1.000000000000000 ]
- [  1.000000000000000,  0.000000000000000,  0.000000000000000 ]
- [  0.000000000000000,  1.000000000000000,  0.000000000000000 ]

supercell_matrix:
- [   3,   0,   0 ]
- [   0,   3,   0 ]
- [   0,   0,   3 ]

primitive_cell:
  lattice:
  - [     0.000000000000000,     8.451448299845284,     0.000000000000000 ] # a
  - [     0.000000000000000,     0.000000000000000,     8.451448299845284 ] # b
  - [     5.489439851616213,     0.000000000000000,     0.000000000000000 ] # c
  points:
  - symbol: Ge # 1
    coordinates: [  0.500215134143281,  0.500215134143281,  0.500537754100324 ]
    mass: 72.640000
  - symbol: Ge # 2
    coordinates: [  0.000216405901088,  0.000216405901088,  0.000603174110092 ]
    mass: 72.640000
  - symbol: O # 3
    coordinates: [  0.693315267136856,  0.693315267136856,  0.000562555482827 ]
    mass: 15.999400
  - symbol: O # 4
    coordinates: [  0.807154657244412,  0.193342227029458,  0.500569377436227 ]
    mass: 15.999400
  - symbol: O # 5
    coordinates: [  0.307130531924816,  0.307130531924816,  0.000562614349156 ]
    mass: 15.999400
  - symbol: O # 6
    coordinates: [  0.193342227029458,  0.807154657244412,  0.500569377436227 ]
    mass: 15.999400
  reciprocal_lattice: # without 2pi
  - [     0.000000000000000,     0.118322915140865,     0.000000000000000 ] # a*
  - [     0.000000000000000,     0.000000000000000,     0.118322915140865 ] # b*
  - [     0.182167949195322,     0.000000000000000,     0.000000000000000 ] # c*

unit_cell:
  lattice:
  - [     5.489439851616214,     0.000000000000000,     0.000000000000000 ] # a
  - [     0.000000000000000,     8.451448299845282,    -0.000000000000000 ] # b
  - [     0.000000000000000,     0.000000000000000,     8.451448299845282 ] # c
  points:
  - symbol: Ge # 1
    coordinates: [  0.500537754100324,  0.500215134143282,  0.500215134143282 ]
    mass: 72.640000
    reduced_to: 1
  - symbol: Ge # 2
    coordinates: [  0.000603174110092,  0.000216405901088,  0.000216405901088 ]
    mass: 72.640000
    reduced_to: 2
  - symbol: O # 3
    coordinates: [  0.000562555482827,  0.693315267136856,  0.693315267136856 ]
    mass: 15.999400
    reduced_to: 3
  - symbol: O # 4
    coordinates: [  0.500569377436227,  0.807154657244412,  0.193342227029458 ]
    mass: 15.999400
    reduced_to: 4
  - symbol: O # 5
    coordinates: [  0.000562614349156,  0.307130531924816,  0.307130531924816 ]
    mass: 15.999400
    reduced_to: 5
  - symbol: O # 6
    coordinates: [  0.500569377436227,  0.193342227029458,  0.807154657244412 ]
    mass: 15.999400
    reduced_to: 6

supercell:
  lattice:
  - [    16.468319554848641,     0.000000000000000,     0.000000000000000 ] # a
  - [     0.000000000000000,    25.354344899535846,     0.000000000000000 ] # b
  - [     0.000000000000000,     0.000000000000000,    25.354344899535846 ] # c
  points:
  - symbol: Ge # 1
    coordinates: [  0.166845918033441,  0.166738378047761,  0.166738378047761 ]
    mass: 72.640000
    reduced_to: 1
  - symbol: Ge # 2
    coordinates: [  0.500179251366774,  0.166738378047761,  0.166738378047761 ]
    mass: 72.640000
    reduced_to: 1
  - symbol: Ge # 3
    coordinates: [  0.833512584700108,  0.166738378047761,  0.166738378047761 ]
    mass: 72.640000
    reduced_to: 1
  - symbol: Ge # 4
    coordinates: [  0.166845918033441,  0.500071711381094,  0.166738378047761 ]
    mass: 72.640000
    reduced_to: 1
  - symbol: Ge # 5
    coordinates: [  0.500179251366774,  0.500071711381094,  0.166738378047761 ]
    mass: 72.640000
    reduced_to: 1
  - symbol: Ge # 6
    coordinates: [  0.833512584700108,  0.500071711381094,  0.166738378047761 ]
    mass: 72.640000
    reduced_to: 1
  - symbol: Ge # 7
    coordinates: [  0.166845918033441,  0.833405044714427,  0.166738378047761 ]
    mass: 72.640000
    reduced_to: 1
  - symbol: Ge # 8
    coordinates: [  0.500179251366774,  0.833405044714427,  0.166738378047761 ]
    mass: 72.640000
    reduced_to: 1
  - symbol: Ge # 9
    coordinates: [  0.833512584700108,  0.833405044714427,  0.166738378047761 ]
    mass: 72.640000
    reduced_to: 1
  - symbol: Ge # 10
    coordinates: [  0.166845918033441,  0.166738378047761,  0.500071711381094 ]
    mass: 72.640000
    reduced_to: 1
  - symbol: Ge # 11
    coordinates: [  0.500179251366774,  0.166738378047761,  0.500071711381094 ]
    mass: 72.640000
    reduced_to: 1
  - symbol: Ge # 12
    coordinates: [  0.833512584700108,  0.166738378047761,  0.500071711381094 ]
    mass: 72.640000
    reduced_to: 1
  - symbol: Ge # 13
    coordinates: [  0.166845918033441,  0.500071711381094,  0.500071711381094 ]
    mass: 72.640000
    reduced_to: 1
  - symbol: Ge # 14
    coordinates: [  0.500179251366774,  0.500071711381094,  0.500071711381094 ]
    mass: 72.640000
    reduced_to: 1
  - symbol: Ge # 15
    coordinates: [  0.833512584700108,  0.500071711381094,  0.500071711381094 ]
    mass: 72.640000
    reduced_to: 1
  - symbol: Ge # 16
    coordinates: [  0.166845918033441,  0.833405044714427,  0.500071711381094 ]
    mass: 72.640000
    reduced_to: 1
  - symbol: Ge # 17
    coordinates: [  0.500179251366774,  0.833405044714427,  0.500071711381094 ]
    mass: 72.640000
    reduced_to: 1
  - symbol: Ge # 18
    coordinates: [  0.833512584700108,  0.833405044714427,  0.500071711381094 ]
    mass: 72.640000
    reduced_to: 1
  - symbol: Ge # 19
    coordinates: [  0.166845918033441,  0.166738378047761,  0.833405044714427 ]
    mass: 72.640000
    reduced_to: 1
  - symbol: Ge # 20
    coordinates: [  0.500179251366774,  0.166738378047761,  0.833405044714427 ]
    mass: 72.640000
    reduced_to: 1
  - symbol: Ge # 21
    coordinates: [  0.833512584700108,  0.166738378047761,  0.833405044714427 ]
    mass: 72.640000
    reduced_to: 1
  - symbol: Ge # 22
    coordinates: [  0.166845918033441,  0.500071711381094,  0.833405044714427 ]
    mass: 72.640000
    reduced_to: 1
  - symbol: Ge # 23
    coordinates: [  0.500179251366774,  0.500071711381094,  0.833405044714427 ]
    mass: 72.640000
    reduced_to: 1
  - symbol: Ge # 24
    coordinates: [  0.833512584700108,  0.500071711381094,  0.833405044714427 ]
    mass: 72.640000
    reduced_to: 1
  - symbol: Ge # 25
    coordinates: [  0.166845918033441,  0.833405044714427,  0.833405044714427 ]
    mass: 72.640000
    reduced_to: 1
  - symbol: Ge # 26
    coordinates: [  0.500179251366774,  0.833405044714427,  0.833405044714427 ]
    mass: 72.640000
    reduced_to: 1
  - symbol: Ge # 27
    coordinates: [  0.833512584700108,  0.833405044714427,  0.833405044714427 ]
    mass: 72.640000
    reduced_to: 1
  - symbol: Ge # 28
    coordinates: [  0.000201058036697,  0.000072135300363,  0.000072135300363 ]
    mass: 72.640000
    reduced_to: 28
  - symbol: Ge # 29
    coordinates: [  0.333534391370031,  0.000072135300363,  0.000072135300363 ]
    mass: 72.640000
    reduced_to: 28
  - symbol: Ge # 30
    coordinates: [  0.666867724703364,  0.000072135300363,  0.000072135300363 ]
    mass: 72.640000
    reduced_to: 28
  - symbol: Ge # 31
    coordinates: [  0.000201058036697,  0.333405468633696,  0.000072135300363 ]
    mass: 72.640000
    reduced_to: 28
  - symbol: Ge # 32
    coordinates: [  0.333534391370031,  0.333405468633696,  0.000072135300363 ]
    mass: 72.640000
    reduced_to: 28
  - symbol: Ge # 33
    coordinates: [  0.666867724703364,  0.333405468633696,  0.000072135300363 ]
    mass: 72.640000
    reduced_to: 28
  - symbol: Ge # 34
    coordinates: [  0.000201058036697,  0.666738801967029,  0.000072135300363 ]
    mass: 72.640000
    reduced_to: 28
  - symbol: Ge # 35
    coordinates: [  0.333534391370031,  0.666738801967029,  0.000072135300363 ]
    mass: 72.640000
    reduced_to: 28
  - symbol: Ge # 36
    coordinates: [  0.666867724703364,  0.666738801967029,  0.000072135300363 ]
    mass: 72.640000
    reduced_to: 28
  - symbol: Ge # 37
    coordinates: [  0.000201058036697,  0.000072135300363,  0.333405468633696 ]
    mass: 72.640000
    reduced_to: 28
  - symbol: Ge # 38
    coordinates: [  0.333534391370031,  0.000072135300363,  0.333405468633696 ]
    mass: 72.640000
    reduced_to: 28
  - symbol: Ge # 39
    coordinates: [  0.666867724703364,  0.000072135300363,  0.333405468633696 ]
    mass: 72.640000
    reduced_to: 28
  - symbol: Ge # 40
    coordinates: [  0.000201058036697,  0.333405468633696,  0.333405468633696 ]
    mass: 72.640000
    reduced_to: 28
  - symbol: Ge # 41
    coordinates: [  0.333534391370031,  0.333405468633696,  0.333405468633696 ]
    mass: 72.640000
    reduced_to: 28
  - symbol: Ge # 42
    coordinates: [  0.666867724703364,  0.333405468633696,  0.333405468633696 ]
    mass: 72.640000
    reduced_to: 28
  - symbol: Ge # 43
    coordinates: [  0.000201058036697,  0.666738801967029,  0.333405468633696 ]
    mass: 72.640000
    reduced_to: 28
  - symbol: Ge # 44
    coordinates: [  0.333534391370031,  0.666738801967029,  0.333405468633696 ]
    mass: 72.640000
    reduced_to: 28
  - symbol: Ge # 45
    coordinates: [  0.666867724703364,  0.666738801967029,  0.333405468633696 ]
    mass: 72.640000
    reduced_to: 28
  - symbol: Ge # 46
    coordinates: [  0.000201058036697,  0.000072135300363,  0.666738801967029 ]
    mass: 72.640000
    reduced_to: 28
  - symbol: Ge # 47
    coordinates: [  0.333534391370031,  0.000072135300363,  0.666738801967029 ]
    mass: 72.640000
    reduced_to: 28
  - symbol: Ge # 48
    coordinates: [  0.666867724703364,  0.000072135300363,  0.666738801967029 ]
    mass: 72.640000
    reduced_to: 28
  - symbol: Ge # 49
    coordinates: [  0.000201058036697,  0.333405468633696,  0.666738801967029 ]
    mass: 72.640000
    reduced_to: 28
  - symbol: Ge # 50
    coordinates: [  0.333534391370031,  0.333405468633696,  0.666738801967029 ]
    mass: 72.640000
    reduced_to: 28
  - symbol: Ge # 51
    coordinates: [  0.666867724703364,  0.333405468633696,  0.666738801967029 ]
    mass: 72.640000
    reduced_to: 28
  - symbol: Ge # 52
    coordinates: [  0.000201058036697,  0.666738801967029,  0.666738801967029 ]
    mass: 72.640000
    reduced_to: 28
  - symbol: Ge # 53
    coordinates: [  0.333534391370031,  0.666738801967029,  0.666738801967029 ]
    mass: 72.640000
    reduced_to: 28
  - symbol: Ge # 54
    coordinates: [  0.666867724703364,  0.666738801967029,  0.666738801967029 ]
    mass: 72.640000
    reduced_to: 28
  - symbol: O # 55
    coordinates: [  0.000187518494276,  0.231105089045619,  0.231105089045619 ]
    mass: 15.999400
    reduced_to: 55
  - symbol: O # 56
    coordinates: [  0.333520851827609,  0.231105089045619,  0.231105089045619 ]
    mass: 15.999400
    reduced_to: 55
  - symbol: O # 57
    coordinates: [  0.666854185160942,  0.231105089045619,  0.231105089045619 ]
    mass: 15.999400
    reduced_to: 55
  - symbol: O # 58
    coordinates: [  0.000187518494276,  0.564438422378952,  0.231105089045619 ]
    mass: 15.999400
    reduced_to: 55
  - symbol: O # 59
    coordinates: [  0.333520851827609,  0.564438422378952,  0.231105089045619 ]
    mass: 15.999400
    reduced_to: 55
  - symbol: O # 60
    coordinates: [  0.666854185160942,  0.564438422378952,  0.231105089045619 ]
    mass: 15.999400
    reduced_to: 55
  - symbol: O # 61
    coordinates: [  0.000187518494276,  0.897771755712285,  0.231105089045619 ]
    mass: 15.999400
    reduced_to: 55
  - symbol: O # 62
    coordinates: [  0.333520851827609,  0.897771755712285,  0.231105089045619 ]
    mass: 15.999400
    reduced_to: 55
  - symbol: O # 63
    coordinates: [  0.666854185160942,  0.897771755712285,  0.231105089045619 ]
    mass: 15.999400
    reduced_to: 55
  - symbol: O # 64
    coordinates: [  0.000187518494276,  0.231105089045619,  0.564438422378952 ]
    mass: 15.999400
    reduced_to: 55
  - symbol: O # 65
    coordinates: [  0.333520851827609,  0.231105089045619,  0.564438422378952 ]
    mass: 15.999400
    reduced_to: 55
  - symbol: O # 66
    coordinates: [  0.666854185160942,  0.231105089045619,  0.564438422378952 ]
    mass: 15.999400
    reduced_to: 55
  - symbol: O # 67
    coordinates: [  0.000187518494276,  0.564438422378952,  0.564438422378952 ]
    mass: 15.999400
    reduced_to: 55
  - symbol: O # 68
    coordinates: [  0.333520851827609,  0.564438422378952,  0.564438422378952 ]
    mass: 15.999400
    reduced_to: 55
  - symbol: O # 69
    coordinates: [  0.666854185160942,  0.564438422378952,  0.564438422378952 ]
    mass: 15.999400
    reduced_to: 55
  - symbol: O # 70
    coordinates: [  0.000187518494276,  0.897771755712285,  0.564438422378952 ]
    mass: 15.999400
    reduced_to: 55
  - symbol: O # 71
    coordinates: [  0.333520851827609,  0.897771755712285,  0.564438422378952 ]
    mass: 15.999400
    reduced_to: 55
  - symbol: O # 72
    coordinates: [  0.666854185160942,  0.897771755712285,  0.564438422378952 ]
    mass: 15.999400
    reduced_to: 55
  - symbol: O # 73
    coordinates: [  0.000187518494276,  0.231105089045619,  0.897771755712285 ]
    mass: 15.999400
    reduced_to: 55
  - symbol: O # 74
    coordinates: [  0.333520851827609,  0.231105089045619,  0.897771755712285 ]
    mass: 15.999400
    reduced_to: 55
  - symbol: O # 75
    coordinates: [  0.666854185160942,  0.231105089045619,  0.897771755712285 ]
    mass: 15.999400
    reduced_to: 55
  - symbol: O # 76
    coordinates: [  0.000187518494276,  0.564438422378952,  0.897771755712285 ]
    mass: 15.999400
    reduced_to: 55
  - symbol: O # 77
    coordinates: [  0.333520851827609,  0.564438422378952,  0.897771755712285 ]
    mass: 15.999400
    reduced_to: 55
  - symbol: O # 78
    coordinates: [  0.666854185160942,  0.564438422378952,  0.897771755712285 ]
    mass: 15.999400
    reduced_to: 55
  - symbol: O # 79
    coordinates: [  0.000187518494276,  0.897771755712285,  0.897771755712285 ]
    mass: 15.999400
    reduced_to: 55
  - symbol: O # 80
    coordinates: [  0.333520851827609,  0.897771755712285,  0.897771755712285 ]
    mass: 15.999400
    reduced_to: 55
  - symbol: O # 81
    coordinates: [  0.666854185160942,  0.897771755712285,  0.897771755712285 ]
    mass: 15.999400
    reduced_to: 55
  - symbol: O # 82
    coordinates: [  0.166856459145409,  0.269051552414804,  0.064447409009819 ]
    mass: 15.999400
    reduced_to: 82
  - symbol: O # 83
    coordinates: [  0.500189792478742,  0.269051552414804,  0.064447409009819 ]
    mass: 15.999400
    reduced_to: 82
  - symbol: O # 84
    coordinates: [  0.833523125812076,  0.269051552414804,  0.064447409009819 ]
    mass: 15.999400
    reduced_to: 82
  - symbol: O # 85
    coordinates: [  0.166856459145409,  0.602384885748137,  0.064447409009819 ]
    mass: 15.999400
    reduced_to: 82
  - symbol: O # 86
    coordinates: [  0.500189792478742,  0.602384885748137,  0.064447409009819 ]
    mass: 15.999400
    reduced_to: 82
  - symbol: O # 87
    coordinates: [  0.833523125812076,  0.602384885748137,  0.064447409009819 ]
    mass: 15.999400
    reduced_to: 82
  - symbol: O # 88
    coordinates: [  0.166856459145409,  0.935718219081471,  0.064447409009819 ]
    mass: 15.999400
    reduced_to: 82
  - symbol: O # 89
    coordinates: [  0.500189792478742,  0.935718219081471,  0.064447409009819 ]
    mass: 15.999400
    reduced_to: 82
  - symbol: O # 90
    coordinates: [  0.833523125812076,  0.935718219081471,  0.064447409009819 ]
    mass: 15.999400
    reduced_to: 82
  - symbol: O # 91
    coordinates: [  0.166856459145409,  0.269051552414804,  0.397780742343153 ]
    mass: 15.999400
    reduced_to: 82
  - symbol: O # 92
    coordinates: [  0.500189792478742,  0.269051552414804,  0.397780742343153 ]
    mass: 15.999400
    reduced_to: 82
  - symbol: O # 93
    coordinates: [  0.833523125812076,  0.269051552414804,  0.397780742343153 ]
    mass: 15.999400
    reduced_to: 82
  - symbol: O # 94
    coordinates: [  0.166856459145409,  0.602384885748137,  0.397780742343153 ]
    mass: 15.999400
    reduced_to: 82
  - symbol: O # 95
    coordinates: [  0.500189792478742,  0.602384885748137,  0.397780742343153 ]
    mass: 15.999400
    reduced_to: 82
  - symbol: O # 96
    coordinates: [  0.833523125812076,  0.602384885748137,  0.397780742343153 ]
    mass: 15.999400
    reduced_to: 82
  - symbol: O # 97
    coordinates: [  0.166856459145409,  0.935718219081471,  0.397780742343153 ]
    mass: 15.999400
    reduced_to: 82
  - symbol: O # 98
    coordinates: [  0.500189792478742,  0.935718219081471,  0.397780742343153 ]
    mass: 15.999400
    reduced_to: 82
  - symbol: O # 99
    coordinates: [  0.833523125812076,  0.935718219081471,  0.397780742343153 ]
    mass: 15.999400
    reduced_to: 82
  - symbol: O # 100
    coordinates: [  0.166856459145409,  0.269051552414804,  0.731114075676486 ]
    mass: 15.999400
    reduced_to: 82
  - symbol: O # 101
    coordinates: [  0.500189792478742,  0.269051552414804,  0.731114075676486 ]
    mass: 15.999400
    reduced_to: 82
  - symbol: O # 102
    coordinates: [  0.833523125812076,  0.269051552414804,  0.731114075676486 ]
    mass: 15.999400
    reduced_to: 82
  - symbol: O # 103
    coordinates: [  0.166856459145409,  0.602384885748137,  0.731114075676486 ]
    mass: 15.999400
    reduced_to: 82
  - symbol: O # 104
    coordinates: [  0.500189792478742,  0.602384885748137,  0.731114075676486 ]
    mass: 15.999400
    reduced_to: 82
  - symbol: O # 105
    coordinates: [  0.833523125812076,  0.602384885748137,  0.731114075676486 ]
    mass: 15.999400
    reduced_to: 82
  - symbol: O # 106
    coordinates: [  0.166856459145409,  0.935718219081471,  0.731114075676486 ]
    mass: 15.999400
    reduced_to: 82
  - symbol: O # 107
    coordinates: [  0.500189792478742,  0.935718219081471,  0.731114075676486 ]
    mass: 15.999400
    reduced_to: 82
  - symbol: O # 108
    coordinates: [  0.833523125812076,  0.935718219081471,  0.731114075676486 ]
    mass: 15.999400
    reduced_to: 82
  - symbol: O # 109
    coordinates: [  0.000187538116385,  0.102376843974939,  0.102376843974939 ]
    mass: 15.999400
    reduced_to: 109
  - symbol: O # 110
    coordinates: [  0.333520871449718,  0.102376843974939,  0.102376843974939 ]
    mass: 15.999400
    reduced_to: 109
  - symbol: O # 111
    coordinates: [  0.666854204783052,  0.102376843974939,  0.102376843974939 ]
    mass: 15.999400
    reduced_to: 109
  - symbol: O # 112
    coordinates: [  0.000187538116385,  0.435710177308272,  0.102376843974939 ]
    mass: 15.999400
    reduced_to: 109
  - symbol: O # 113
    coordinates: [  0.333520871449718,  0.435710177308272,  0.102376843974939 ]
    mass: 15.999400
    reduced_to: 109
  - symbol: O # 114
    coordinates: [  0.666854204783052,  0.435710177308272,  0.102376843974939 ]
    mass: 15.999400
    reduced_to: 109
  - symbol: O # 115
    coordinates: [  0.000187538116385,  0.769043510641605,  0.102376843974939 ]
    mass: 15.999400
    reduced_to: 109
  - symbol: O # 116
    coordinates: [  0.333520871449718,  0.769043510641605,  0.102376843974939 ]
    mass: 15.999400
    reduced_to: 109
  - symbol: O # 117
    coordinates: [  0.666854204783052,  0.769043510641605,  0.102376843974939 ]
    mass: 15.999400
    reduced_to: 109
  - symbol: O # 118
    coordinates: [  0.000187538116385,  0.102376843974939,  0.435710177308272 ]
    mass: 15.999400
    reduced_to: 109
  - symbol: O # 119
    coordinates: [  0.333520871449718,  0.102376843974939,  0.435710177308272 ]
    mass: 15.999400
    reduced_to: 109
  - symbol: O # 120
    coordinates: [  0.666854204783052,  0.102376843974939,  0.435710177308272 ]
    mass: 15.999400
    reduced_to: 109
  - symbol: O # 121
    coordinates: [  0.000187538116385,  0.435710177308272,  0.435710177308272 ]
    mass: 15.999400
    reduced_to: 109
  - symbol: O # 122
    coordinates: [  0.333520871449718,  0.435710177308272,  0.435710177308272 ]
    mass: 15.999400
    reduced_to: 109
  - symbol: O # 123
    coordinates: [  0.666854204783052,  0.435710177308272,  0.435710177308272 ]
    mass: 15.999400
    reduced_to: 109
  - symbol: O # 124
    coordinates: [  0.000187538116385,  0.769043510641605,  0.435710177308272 ]
    mass: 15.999400
    reduced_to: 109
  - symbol: O # 125
    coordinates: [  0.333520871449718,  0.769043510641605,  0.435710177308272 ]
    mass: 15.999400
    reduced_to: 109
  - symbol: O # 126
    coordinates: [  0.666854204783052,  0.769043510641605,  0.435710177308272 ]
    mass: 15.999400
    reduced_to: 109
  - symbol: O # 127
    coordinates: [  0.000187538116385,  0.102376843974939,  0.769043510641605 ]
    mass: 15.999400
    reduced_to: 109
  - symbol: O # 128
    coordinates: [  0.333520871449718,  0.102376843974939,  0.769043510641605 ]
    mass: 15.999400
    reduced_to: 109
  - symbol: O # 129
    coordinates: [  0.666854204783052,  0.102376843974939,  0.769043510641605 ]
    mass: 15.999400
    reduced_to: 109
  - symbol: O # 130
    coordinates: [  0.000187538116385,  0.435710177308272,  0.769043510641605 ]
    mass: 15.999400
    reduced_to: 109
  - symbol: O # 131
    coordinates: [  0.333520871449718,  0.435710177308272,  0.769043510641605 ]
    mass: 15.999400
    reduced_to: 109
  - symbol: O # 132
    coordinates: [  0.666854204783052,  0.435710177308272,  0.769043510641605 ]
    mass: 15.999400
    reduced_to: 109
  - symbol: O # 133
    coordinates: [  0.000187538116385,  0.769043510641605,  0.769043510641605 ]
    mass: 15.999400
    reduced_to: 109
  - symbol: O # 134
    coordinates: [  0.333520871449718,  0.769043510641605,  0.769043510641605 ]
    mass: 15.999400
    reduced_to: 109
  - symbol: O # 135
    coordinates: [  0.666854204783052,  0.769043510641605,  0.769043510641605 ]
    mass: 15.999400
    reduced_to: 109
  - symbol: O # 136
    coordinates: [  0.166856459145409,  0.064447409009819,  0.269051552414804 ]
    mass: 15.999400
    reduced_to: 136
  - symbol: O # 137
    coordinates: [  0.500189792478742,  0.064447409009819,  0.269051552414804 ]
    mass: 15.999400
    reduced_to: 136
  - symbol: O # 138
    coordinates: [  0.833523125812076,  0.064447409009819,  0.269051552414804 ]
    mass: 15.999400
    reduced_to: 136
  - symbol: O # 139
    coordinates: [  0.166856459145409,  0.397780742343153,  0.269051552414804 ]
    mass: 15.999400
    reduced_to: 136
  - symbol: O # 140
    coordinates: [  0.500189792478742,  0.397780742343153,  0.269051552414804 ]
    mass: 15.999400
    reduced_to: 136
  - symbol: O # 141
    coordinates: [  0.833523125812076,  0.397780742343153,  0.269051552414804 ]
    mass: 15.999400
    reduced_to: 136
  - symbol: O # 142
    coordinates: [  0.166856459145409,  0.731114075676486,  0.269051552414804 ]
    mass: 15.999400
    reduced_to: 136
  - symbol: O # 143
    coordinates: [  0.500189792478742,  0.731114075676486,  0.269051552414804 ]
    mass: 15.999400
    reduced_to: 136
  - symbol: O # 144
    coordinates: [  0.833523125812076,  0.731114075676486,  0.269051552414804 ]
    mass: 15.999400
    reduced_to: 136
  - symbol: O # 145
    coordinates: [  0.166856459145409,  0.064447409009819,  0.602384885748137 ]
    mass: 15.999400
    reduced_to: 136
  - symbol: O # 146
    coordinates: [  0.500189792478742,  0.064447409009819,  0.602384885748137 ]
    mass: 15.999400
    reduced_to: 136
  - symbol: O # 147
    coordinates: [  0.833523125812076,  0.064447409009819,  0.602384885748137 ]
    mass: 15.999400
    reduced_to: 136
  - symbol: O # 148
    coordinates: [  0.166856459145409,  0.397780742343153,  0.602384885748137 ]
    mass: 15.999400
    reduced_to: 136
  - symbol: O # 149
    coordinates: [  0.500189792478742,  0.397780742343153,  0.602384885748137 ]
    mass: 15.999400
    reduced_to: 136
  - symbol: O # 150
    coordinates: [  0.833523125812076,  0.397780742343153,  0.602384885748137 ]
    mass: 15.999400
    reduced_to: 136
  - symbol: O # 151
    coordinates: [  0.166856459145409,  0.731114075676486,  0.602384885748137 ]
    mass: 15.999400
    reduced_to: 136
  - symbol: O # 152
    coordinates: [  0.500189792478742,  0.731114075676486,  0.602384885748137 ]
    mass: 15.999400
    reduced_to: 136
  - symbol: O # 153
    coordinates: [  0.833523125812076,  0.731114075676486,  0.602384885748137 ]
    mass: 15.999400
    reduced_to: 136
  - symbol: O # 154
    coordinates: [  0.166856459145409,  0.064447409009819,  0.935718219081471 ]
    mass: 15.999400
    reduced_to: 136
  - symbol: O # 155
    coordinates: [  0.500189792478742,  0.064447409009819,  0.935718219081471 ]
    mass: 15.999400
    reduced_to: 136
  - symbol: O # 156
    coordinates: [  0.833523125812076,  0.064447409009819,  0.935718219081471 ]
    mass: 15.999400
    reduced_to: 136
  - symbol: O # 157
    coordinates: [  0.166856459145409,  0.397780742343153,  0.935718219081471 ]
    mass: 15.999400
    reduced_to: 136
  - symbol: O # 158
    coordinates: [  0.500189792478742,  0.397780742343153,  0.935718219081471 ]
    mass: 15.999400
    reduced_to: 136
  - symbol: O # 159
    coordinates: [  0.833523125812076,  0.397780742343153,  0.935718219081471 ]
    mass: 15.999400
    reduced_to: 136
  - symbol: O # 160
    coordinates: [  0.166856459145409,  0.731114075676486,  0.935718219081471 ]
    mass: 15.999400
    reduced_to: 136
  - symbol: O # 161
    coordinates: [  0.500189792478742,  0.731114075676486,  0.935718219081471 ]
    mass: 15.999400
    reduced_to: 136
  - symbol: O # 162
    coordinates: [  0.833523125812076,  0.731114075676486,  0.935718219081471 ]
    mass: 15.999400
    reduced_to: 136

displacements:
- atom:    1
  displacement:
    [   0.0000000000000000,  0.0200000000000000,  0.0000000000000000 ]
- atom:    1
  displacement:
    [   0.0000000000000000, -0.0200000000000000,  0.0000000000000000 ]
- atom:    1
  displacement:
    [   0.0200000000000000,  0.0000000000000000,  0.0000000000000000 ]
- atom:    1
  displacement:
    [  -0.0200000000000000,  0.0000000000000000,  0.0000000000000000 ]
- atom:   28
  displacement:
    [   0.0000000000000000,  0.0200000000000000,  0.0000000000000000 ]
- atom:   28
  displacement:
    [   0.0000000000000000, -0.0200000000000000,  0.0000000000000000 ]
- atom:   28
  displacement:
    [   0.0200000000000000,  0.0000000000000000,  0.0000000000000000 ]
- atom:   28
  displacement:
    [  -0.0200000000000000,  0.0000000000000000,  0.0000000000000000 ]
- atom:   55
  displacement:
    [   0.0000000000000000,  0.0200000000000000,  0.0000000000000000 ]
- atom:   55
  displacement:
    [   0.0000000000000000, -0.0200000000000000,  0.0000000000000000 ]
- atom:   55
  displacement:
    [   0.0200000000000000,  0.0000000000000000,  0.0000000000000000 ]
- atom:   55
  displacement:
    [  -0.0200000000000000,  0.0000000000000000,  0.0000000000000000 ]
- atom:   82
  displacement:
    [   0.0200000000000000,  0.0000000000000000,  0.0000000000000000 ]
- atom:   82
  displacement:
    [  -0.0200000000000000,  0.0000000000000000,  0.0000000000000000 ]
- atom:   82
  displacement:
    [   0.0000000000000000,  0.0200000000000000,  0.0000000000000000 ]
- atom:   82
  displacement:
    [   0.0000000000000000, -0.0200000000000000,  0.0000000000000000 ]
- atom:   82
  displacement:
    [   0.0000000000000000,  0.0000000000000000,  0.0200000000000000 ]
- atom:   82
  displacement:
    [   0.0000000000000000,  0.0000000000000000, -0.0200000000000000 ]
- atom:  109
  displacement:
    [   0.0000000000000000,  0.0200000000000000,  0.0000000000000000 ]
- atom:  109
  displacement:
    [   0.0000000000000000, -0.0200000000000000,  0.0000000000000000 ]
- atom:  109
  displacement:
    [   0.0200000000000000,  0.0000000000000000,  0.0000000000000000 ]
- atom:  109
  displacement:
    [  -0.0200000000000000,  0.0000000000000000,  0.0000000000000000 ]
