
     Program PWSCF v.6.8 starts on 19May2025 at 17:36:17 

     This program is part of the open-source Quantum ESPRESSO suite
     for quantum simulation of materials; please cite
         "P. Giannozzi et al., J. Phys.:Condens. Matter 21 395502 (2009);
         "P. Giannozzi et al., J. Phys.:Condens. Matter 29 465901 (2017);
         "P. Giannozzi et al., J. Chem. Phys. 152 154105 (2020);
          URL http://www.quantum-espresso.org", 
     in publications or presentations arising from this work. More details at
     http://www.quantum-espresso.org/quote

     Parallel version (MPI & OpenMP), running on      56 processor cores
     Number of MPI processes:                56
     Threads/MPI process:                     1

     MPI processes distributed on     1 nodes
     R & G space division:  proc/nbgrp/npool/nimage =      56
     186681 MiB available memory on the printing compute node when the environment starts
 
     Reading input from supercell-005.in

     Current dimensions of program PWSCF are:
     Max number of different atomic species (ntypx) = 10
     Max number of k-points (npk) =  40000
     Max angular momentum in pseudopotentials (lmaxx) =  4

     Subspace diagonalization in iterative solution of the eigenvalue problem:
     one sub-group per band group will be used
     scalapack distributed-memory algorithm (size of sub-group:  7*  7 procs)

 
     Parallelization info
     --------------------
     sticks:   dense  smooth     PW     G-vecs:    dense   smooth      PW
     Min         142     142     37                11872    11872    1609
     Max         143     143     38                11879    11879    1614
     Sum        7985    7985   2105               665041   665041   90217
 
     Using Slab Decomposition
 


     bravais-lattice index     =            0
     lattice parameter (alat)  =      16.4683  a.u.
     unit-cell volume          =   10586.5407 (a.u.)^3
     number of atoms/cell      =          162
     number of atomic types    =            2
     number of electrons       =      1404.00
     number of Kohn-Sham states=          702
     kinetic-energy cutoff     =      60.0000  Ry
     charge density cutoff     =     240.0000  Ry
     scf convergence threshold =      1.0E-08
     mixing beta               =       0.7000
     number of iterations used =            8  plain     mixing
     Exchange-correlation= PBE
                           (   1   4   3   4   0   0   0)

     celldm(1)=  16.468320  celldm(2)=   0.000000  celldm(3)=   0.000000
     celldm(4)=   0.000000  celldm(5)=   0.000000  celldm(6)=   0.000000

     crystal axes: (cart. coord. in units of alat)
               a(1) = (   1.000000   0.000000   0.000000 )  
               a(2) = (   0.000000   1.539583   0.000000 )  
               a(3) = (   0.000000   0.000000   1.539583 )  

     reciprocal axes: (cart. coord. in units 2 pi/alat)
               b(1) = (  1.000000  0.000000  0.000000 )  
               b(2) = (  0.000000  0.649527  0.000000 )  
               b(3) = (  0.000000  0.000000  0.649527 )  


     PseudoPot. # 1 for Ge read from file:
     ./Ge.upf
     MD5 check sum: 087fa14d6c89b52166990835c3b338da
     Pseudo is Norm-conserving + core correction, Zval = 14.0
     Generated using ONCVPSP code by D. R. Hamann
     Using radial grid of 1560 points,  6 beta functions with: 
                l(1) =   0
                l(2) =   0
                l(3) =   1
                l(4) =   1
                l(5) =   2
                l(6) =   2

     PseudoPot. # 2 for O  read from file:
     ./O.upf
     MD5 check sum: 9db02a5ece9d56b81b65a73f8163743d
     Pseudo is Norm-conserving + core correction, Zval =  6.0
     Generated using ONCVPSP code by D. R. Hamann
     Using radial grid of  936 points,  5 beta functions with: 
                l(1) =   0
                l(2) =   0
                l(3) =   1
                l(4) =   1
                l(5) =   2

     atomic species   valence    mass     pseudopotential
        Ge            14.00    72.64000     Ge( 1.00)
        O              6.00    15.99940     O ( 1.00)

     No symmetry found



   Cartesian axes

     site n.     atom                  positions (alat units)
         1           Ge  tau(   1) = (   0.1668459   0.2567076   0.2567076  )
         2           Ge  tau(   2) = (   0.5001793   0.2567076   0.2567076  )
         3           Ge  tau(   3) = (   0.8335126   0.2567076   0.2567076  )
         4           Ge  tau(   4) = (   0.1668459   0.7699019   0.2567076  )
         5           Ge  tau(   5) = (   0.5001793   0.7699019   0.2567076  )
         6           Ge  tau(   6) = (   0.8335126   0.7699019   0.2567076  )
         7           Ge  tau(   7) = (   0.1668459   1.2830962   0.2567076  )
         8           Ge  tau(   8) = (   0.5001793   1.2830962   0.2567076  )
         9           Ge  tau(   9) = (   0.8335126   1.2830962   0.2567076  )
        10           Ge  tau(  10) = (   0.1668459   0.2567076   0.7699019  )
        11           Ge  tau(  11) = (   0.5001793   0.2567076   0.7699019  )
        12           Ge  tau(  12) = (   0.8335126   0.2567076   0.7699019  )
        13           Ge  tau(  13) = (   0.1668459   0.7699019   0.7699019  )
        14           Ge  tau(  14) = (   0.5001793   0.7699019   0.7699019  )
        15           Ge  tau(  15) = (   0.8335126   0.7699019   0.7699019  )
        16           Ge  tau(  16) = (   0.1668459   1.2830962   0.7699019  )
        17           Ge  tau(  17) = (   0.5001793   1.2830962   0.7699019  )
        18           Ge  tau(  18) = (   0.8335126   1.2830962   0.7699019  )
        19           Ge  tau(  19) = (   0.1668459   0.2567076   1.2830962  )
        20           Ge  tau(  20) = (   0.5001793   0.2567076   1.2830962  )
        21           Ge  tau(  21) = (   0.8335126   0.2567076   1.2830962  )
        22           Ge  tau(  22) = (   0.1668459   0.7699019   1.2830962  )
        23           Ge  tau(  23) = (   0.5001793   0.7699019   1.2830962  )
        24           Ge  tau(  24) = (   0.8335126   0.7699019   1.2830962  )
        25           Ge  tau(  25) = (   0.1668459   1.2830962   1.2830962  )
        26           Ge  tau(  26) = (   0.5001793   1.2830962   1.2830962  )
        27           Ge  tau(  27) = (   0.8335126   1.2830962   1.2830962  )
        28           Ge  tau(  28) = (   0.0002011   0.0013255   0.0001111  )
        29           Ge  tau(  29) = (   0.3335344   0.0001111   0.0001111  )
        30           Ge  tau(  30) = (   0.6668677   0.0001111   0.0001111  )
        31           Ge  tau(  31) = (   0.0002011   0.5133054   0.0001111  )
        32           Ge  tau(  32) = (   0.3335344   0.5133054   0.0001111  )
        33           Ge  tau(  33) = (   0.6668677   0.5133054   0.0001111  )
        34           Ge  tau(  34) = (   0.0002011   1.0264997   0.0001111  )
        35           Ge  tau(  35) = (   0.3335344   1.0264997   0.0001111  )
        36           Ge  tau(  36) = (   0.6668677   1.0264997   0.0001111  )
        37           Ge  tau(  37) = (   0.0002011   0.0001111   0.5133054  )
        38           Ge  tau(  38) = (   0.3335344   0.0001111   0.5133054  )
        39           Ge  tau(  39) = (   0.6668677   0.0001111   0.5133054  )
        40           Ge  tau(  40) = (   0.0002011   0.5133054   0.5133054  )
        41           Ge  tau(  41) = (   0.3335344   0.5133054   0.5133054  )
        42           Ge  tau(  42) = (   0.6668677   0.5133054   0.5133054  )
        43           Ge  tau(  43) = (   0.0002011   1.0264997   0.5133054  )
        44           Ge  tau(  44) = (   0.3335344   1.0264997   0.5133054  )
        45           Ge  tau(  45) = (   0.6668677   1.0264997   0.5133054  )
        46           Ge  tau(  46) = (   0.0002011   0.0001111   1.0264997  )
        47           Ge  tau(  47) = (   0.3335344   0.0001111   1.0264997  )
        48           Ge  tau(  48) = (   0.6668677   0.0001111   1.0264997  )
        49           Ge  tau(  49) = (   0.0002011   0.5133054   1.0264997  )
        50           Ge  tau(  50) = (   0.3335344   0.5133054   1.0264997  )
        51           Ge  tau(  51) = (   0.6668677   0.5133054   1.0264997  )
        52           Ge  tau(  52) = (   0.0002011   1.0264997   1.0264997  )
        53           Ge  tau(  53) = (   0.3335344   1.0264997   1.0264997  )
        54           Ge  tau(  54) = (   0.6668677   1.0264997   1.0264997  )
        55           O   tau(  55) = (   0.0001875   0.3558055   0.3558055  )
        56           O   tau(  56) = (   0.3335209   0.3558055   0.3558055  )
        57           O   tau(  57) = (   0.6668542   0.3558055   0.3558055  )
        58           O   tau(  58) = (   0.0001875   0.8689998   0.3558055  )
        59           O   tau(  59) = (   0.3335209   0.8689998   0.3558055  )
        60           O   tau(  60) = (   0.6668542   0.8689998   0.3558055  )
        61           O   tau(  61) = (   0.0001875   1.3821941   0.3558055  )
        62           O   tau(  62) = (   0.3335209   1.3821941   0.3558055  )
        63           O   tau(  63) = (   0.6668542   1.3821941   0.3558055  )
        64           O   tau(  64) = (   0.0001875   0.3558055   0.8689998  )
        65           O   tau(  65) = (   0.3335209   0.3558055   0.8689998  )
        66           O   tau(  66) = (   0.6668542   0.3558055   0.8689998  )
        67           O   tau(  67) = (   0.0001875   0.8689998   0.8689998  )
        68           O   tau(  68) = (   0.3335209   0.8689998   0.8689998  )
        69           O   tau(  69) = (   0.6668542   0.8689998   0.8689998  )
        70           O   tau(  70) = (   0.0001875   1.3821941   0.8689998  )
        71           O   tau(  71) = (   0.3335209   1.3821941   0.8689998  )
        72           O   tau(  72) = (   0.6668542   1.3821941   0.8689998  )
        73           O   tau(  73) = (   0.0001875   0.3558055   1.3821941  )
        74           O   tau(  74) = (   0.3335209   0.3558055   1.3821941  )
        75           O   tau(  75) = (   0.6668542   0.3558055   1.3821941  )
        76           O   tau(  76) = (   0.0001875   0.8689998   1.3821941  )
        77           O   tau(  77) = (   0.3335209   0.8689998   1.3821941  )
        78           O   tau(  78) = (   0.6668542   0.8689998   1.3821941  )
        79           O   tau(  79) = (   0.0001875   1.3821941   1.3821941  )
        80           O   tau(  80) = (   0.3335209   1.3821941   1.3821941  )
        81           O   tau(  81) = (   0.6668542   1.3821941   1.3821941  )
        82           O   tau(  82) = (   0.1668565   0.4142272   0.0992221  )
        83           O   tau(  83) = (   0.5001898   0.4142272   0.0992221  )
        84           O   tau(  84) = (   0.8335231   0.4142272   0.0992221  )
        85           O   tau(  85) = (   0.1668565   0.9274215   0.0992221  )
        86           O   tau(  86) = (   0.5001898   0.9274215   0.0992221  )
        87           O   tau(  87) = (   0.8335231   0.9274215   0.0992221  )
        88           O   tau(  88) = (   0.1668565   1.4406159   0.0992221  )
        89           O   tau(  89) = (   0.5001898   1.4406159   0.0992221  )
        90           O   tau(  90) = (   0.8335231   1.4406159   0.0992221  )
        91           O   tau(  91) = (   0.1668565   0.4142272   0.6124165  )
        92           O   tau(  92) = (   0.5001898   0.4142272   0.6124165  )
        93           O   tau(  93) = (   0.8335231   0.4142272   0.6124165  )
        94           O   tau(  94) = (   0.1668565   0.9274215   0.6124165  )
        95           O   tau(  95) = (   0.5001898   0.9274215   0.6124165  )
        96           O   tau(  96) = (   0.8335231   0.9274215   0.6124165  )
        97           O   tau(  97) = (   0.1668565   1.4406159   0.6124165  )
        98           O   tau(  98) = (   0.5001898   1.4406159   0.6124165  )
        99           O   tau(  99) = (   0.8335231   1.4406159   0.6124165  )
       100           O   tau( 100) = (   0.1668565   0.4142272   1.1256108  )
       101           O   tau( 101) = (   0.5001898   0.4142272   1.1256108  )
       102           O   tau( 102) = (   0.8335231   0.4142272   1.1256108  )
       103           O   tau( 103) = (   0.1668565   0.9274215   1.1256108  )
       104           O   tau( 104) = (   0.5001898   0.9274215   1.1256108  )
       105           O   tau( 105) = (   0.8335231   0.9274215   1.1256108  )
       106           O   tau( 106) = (   0.1668565   1.4406159   1.1256108  )
       107           O   tau( 107) = (   0.5001898   1.4406159   1.1256108  )
       108           O   tau( 108) = (   0.8335231   1.4406159   1.1256108  )
       109           O   tau( 109) = (   0.0001875   0.1576176   0.1576176  )
       110           O   tau( 110) = (   0.3335209   0.1576176   0.1576176  )
       111           O   tau( 111) = (   0.6668542   0.1576176   0.1576176  )
       112           O   tau( 112) = (   0.0001875   0.6708120   0.1576176  )
       113           O   tau( 113) = (   0.3335209   0.6708120   0.1576176  )
       114           O   tau( 114) = (   0.6668542   0.6708120   0.1576176  )
       115           O   tau( 115) = (   0.0001875   1.1840063   0.1576176  )
       116           O   tau( 116) = (   0.3335209   1.1840063   0.1576176  )
       117           O   tau( 117) = (   0.6668542   1.1840063   0.1576176  )
       118           O   tau( 118) = (   0.0001875   0.1576176   0.6708120  )
       119           O   tau( 119) = (   0.3335209   0.1576176   0.6708120  )
       120           O   tau( 120) = (   0.6668542   0.1576176   0.6708120  )
       121           O   tau( 121) = (   0.0001875   0.6708120   0.6708120  )
       122           O   tau( 122) = (   0.3335209   0.6708120   0.6708120  )
       123           O   tau( 123) = (   0.6668542   0.6708120   0.6708120  )
       124           O   tau( 124) = (   0.0001875   1.1840063   0.6708120  )
       125           O   tau( 125) = (   0.3335209   1.1840063   0.6708120  )
       126           O   tau( 126) = (   0.6668542   1.1840063   0.6708120  )
       127           O   tau( 127) = (   0.0001875   0.1576176   1.1840063  )
       128           O   tau( 128) = (   0.3335209   0.1576176   1.1840063  )
       129           O   tau( 129) = (   0.6668542   0.1576176   1.1840063  )
       130           O   tau( 130) = (   0.0001875   0.6708120   1.1840063  )
       131           O   tau( 131) = (   0.3335209   0.6708120   1.1840063  )
       132           O   tau( 132) = (   0.6668542   0.6708120   1.1840063  )
       133           O   tau( 133) = (   0.0001875   1.1840063   1.1840063  )
       134           O   tau( 134) = (   0.3335209   1.1840063   1.1840063  )
       135           O   tau( 135) = (   0.6668542   1.1840063   1.1840063  )
       136           O   tau( 136) = (   0.1668565   0.0992221   0.4142272  )
       137           O   tau( 137) = (   0.5001898   0.0992221   0.4142272  )
       138           O   tau( 138) = (   0.8335231   0.0992221   0.4142272  )
       139           O   tau( 139) = (   0.1668565   0.6124165   0.4142272  )
       140           O   tau( 140) = (   0.5001898   0.6124165   0.4142272  )
       141           O   tau( 141) = (   0.8335231   0.6124165   0.4142272  )
       142           O   tau( 142) = (   0.1668565   1.1256108   0.4142272  )
       143           O   tau( 143) = (   0.5001898   1.1256108   0.4142272  )
       144           O   tau( 144) = (   0.8335231   1.1256108   0.4142272  )
       145           O   tau( 145) = (   0.1668565   0.0992221   0.9274215  )
       146           O   tau( 146) = (   0.5001898   0.0992221   0.9274215  )
       147           O   tau( 147) = (   0.8335231   0.0992221   0.9274215  )
       148           O   tau( 148) = (   0.1668565   0.6124165   0.9274215  )
       149           O   tau( 149) = (   0.5001898   0.6124165   0.9274215  )
       150           O   tau( 150) = (   0.8335231   0.6124165   0.9274215  )
       151           O   tau( 151) = (   0.1668565   1.1256108   0.9274215  )
       152           O   tau( 152) = (   0.5001898   1.1256108   0.9274215  )
       153           O   tau( 153) = (   0.8335231   1.1256108   0.9274215  )
       154           O   tau( 154) = (   0.1668565   0.0992221   1.4406159  )
       155           O   tau( 155) = (   0.5001898   0.0992221   1.4406159  )
       156           O   tau( 156) = (   0.8335231   0.0992221   1.4406159  )
       157           O   tau( 157) = (   0.1668565   0.6124165   1.4406159  )
       158           O   tau( 158) = (   0.5001898   0.6124165   1.4406159  )
       159           O   tau( 159) = (   0.8335231   0.6124165   1.4406159  )
       160           O   tau( 160) = (   0.1668565   1.1256108   1.4406159  )
       161           O   tau( 161) = (   0.5001898   1.1256108   1.4406159  )
       162           O   tau( 162) = (   0.8335231   1.1256108   1.4406159  )

     number of k points=     8
                       cart. coord. in units 2pi/alat
        k(    1) = (   0.0000000   0.0000000   0.0000000), wk =   0.1666667
        k(    2) = (   0.0000000   0.0000000  -0.3247633), wk =   0.1666667
        k(    3) = (   0.0000000  -0.3247633  -0.3247633), wk =   0.1666667
        k(    4) = (   0.3333333   0.0000000   0.0000000), wk =   0.3333333
        k(    5) = (   0.3333333   0.0000000  -0.3247633), wk =   0.3333333
        k(    6) = (   0.3333333  -0.3247633  -0.3247633), wk =   0.3333333
        k(    7) = (   0.0000000  -0.3247633   0.0000000), wk =   0.1666667
        k(    8) = (  -0.3333333  -0.3247633   0.0000000), wk =   0.3333333

     Dense  grid:   665041 G-vectors     FFT dimensions: (  81, 125, 125)

     Estimated max dynamical RAM per process >     297.43 MB

     Estimated total dynamical RAM >      16.27 GB

     Check: negative core charge=   -0.000052

     Initial potential from superposition of free atoms

     starting charge 1403.95515, renormalised to 1404.00000
     Starting wfcs are  918 randomized atomic wfcs

     total cpu time spent up to now is       32.0 secs

     Self-consistent Calculation

     iteration #  1     ecut=    60.00 Ry     beta= 0.70
     Davidson diagonalization with overlap
     ethr =  1.00E-02,  avg # of iterations =  2.0

     total cpu time spent up to now is      122.3 secs

     total energy              =  -13210.92747353 Ry
     estimated scf accuracy    <      34.04749628 Ry

     iteration #  2     ecut=    60.00 Ry     beta= 0.70
     Davidson diagonalization with overlap
     ethr =  2.43E-03,  avg # of iterations =  3.9

     total cpu time spent up to now is      219.6 secs

     total energy              =  -13222.25255112 Ry
     estimated scf accuracy    <      22.01954120 Ry

     iteration #  3     ecut=    60.00 Ry     beta= 0.70
     Davidson diagonalization with overlap
     ethr =  1.57E-03,  avg # of iterations =  2.0

     total cpu time spent up to now is      306.0 secs

     total energy              =  -13225.45808736 Ry
     estimated scf accuracy    <       0.43827778 Ry

     iteration #  4     ecut=    60.00 Ry     beta= 0.70
     Davidson diagonalization with overlap
     ethr =  3.12E-05,  avg # of iterations =  6.0

     total cpu time spent up to now is      433.8 secs

     total energy              =  -13225.87553700 Ry
     estimated scf accuracy    <       0.56219502 Ry

     iteration #  5     ecut=    60.00 Ry     beta= 0.70
     Davidson diagonalization with overlap
     ethr =  3.12E-05,  avg # of iterations =  2.0

     total cpu time spent up to now is      514.6 secs

     total energy              =  -13225.88428481 Ry
     estimated scf accuracy    <       0.09272625 Ry

     iteration #  6     ecut=    60.00 Ry     beta= 0.70
     Davidson diagonalization with overlap
     ethr =  6.60E-06,  avg # of iterations =  4.5

     total cpu time spent up to now is      613.3 secs

     total energy              =  -13225.90624213 Ry
     estimated scf accuracy    <       0.00139325 Ry

     iteration #  7     ecut=    60.00 Ry     beta= 0.70
     Davidson diagonalization with overlap
     ethr =  9.92E-08,  avg # of iterations =  5.8

     total cpu time spent up to now is      747.2 secs

     total energy              =  -13225.90712826 Ry
     estimated scf accuracy    <       0.00374079 Ry

     iteration #  8     ecut=    60.00 Ry     beta= 0.70
     Davidson diagonalization with overlap
     ethr =  9.92E-08,  avg # of iterations =  4.1

     total cpu time spent up to now is      841.6 secs

     total energy              =  -13225.90706509 Ry
     estimated scf accuracy    <       0.00080623 Ry

     iteration #  9     ecut=    60.00 Ry     beta= 0.70
     Davidson diagonalization with overlap
     ethr =  5.74E-08,  avg # of iterations =  4.2

     total cpu time spent up to now is      931.0 secs

     total energy              =  -13225.90716925 Ry
     estimated scf accuracy    <       0.00006010 Ry

     iteration # 10     ecut=    60.00 Ry     beta= 0.70
     Davidson diagonalization with overlap
     ethr =  4.28E-09,  avg # of iterations =  4.8

     total cpu time spent up to now is     1024.6 secs

     total energy              =  -13225.90718006 Ry
     estimated scf accuracy    <       0.00000459 Ry

     iteration # 11     ecut=    60.00 Ry     beta= 0.70
     Davidson diagonalization with overlap
     ethr =  3.27E-10,  avg # of iterations =  4.9

     total cpu time spent up to now is     1122.8 secs

     total energy              =  -13225.90718143 Ry
     estimated scf accuracy    <       0.00000008 Ry

     iteration # 12     ecut=    60.00 Ry     beta= 0.70
     Davidson diagonalization with overlap
     ethr =  5.83E-12,  avg # of iterations =  6.0

     total cpu time spent up to now is     1245.1 secs

     End of self-consistent calculation

          k = 0.0000 0.0000 0.0000 ( 83133 PWs)   bands (ev):

   -14.2939 -14.2540 -14.2528 -14.2521 -14.2504 -14.2361 -14.2349 -14.2344
   -14.2331 -14.2232 -14.2216 -14.2211 -14.2208 -14.2200 -14.2197 -14.2193
   -14.2192 -14.2179 -14.2178 -14.2174 -14.2172 -14.2161 -14.2160 -14.2156
   -14.2153 -14.2118 -14.2115 -14.2114 -14.2111 -14.2110 -14.2104 -14.2104
   -14.2093 -14.1900 -14.1887 -14.1883 -14.1871 -14.1845 -14.1840 -14.1837
   -14.1837 -14.1829 -14.1829 -14.1824 -14.1814 -14.1813 -14.1811 -14.1809
   -14.1799 -14.1639 -14.1624 -14.1619 -14.1608 -14.1203 -14.1195 -14.1194
   -14.0674 -14.0663 -14.0658 -14.0656 -14.0652 -14.0650 -14.0646 -14.0640
   -14.0423 -14.0417 -14.0409 -14.0408 -14.0405 -14.0405 -14.0397 -14.0393
   -14.0157 -14.0151 -14.0147 -14.0147 -14.0143 -14.0142 -14.0138 -14.0132
   -13.9953 -13.9948 -13.9941 -13.9932 -13.9918 -13.9913 -13.9913 -13.9912
   -13.9912 -13.9908 -13.9907 -13.9906 -13.9893 -13.9886 -13.9885 -13.9878
   -13.9874 -13.9873 -13.9869 -13.9865 -13.9860 -13.9860 -13.9858 -13.9849
   -13.9840 -13.9839 -13.9832 -13.9831 -13.9816 -13.9814 -13.9808 -13.9807
   -13.9801 -13.9800 -13.9778 -13.9777 -13.9770 -13.9647 -13.9637 -13.9626
   -13.9619 -13.9584 -13.9571 -13.9555 -13.9549 -13.9445 -13.9417 -13.9407
   -13.9398 -13.9396 -13.9392 -13.9388 -13.9376 -13.9369 -13.9368 -13.9367
   -13.9366 -13.9358 -13.9356 -13.9355 -13.9355 -13.9354 -13.9354 -13.9354
   -13.9353 -13.9353 -13.9352 -13.9351 -13.9351 -13.9340 -13.9340 -13.9339
   -13.9338 -13.9334 -13.9326 -13.9319 -13.9311 -13.9311 -13.9303 -13.9292
   -13.9290 -13.9287 -13.9269 -13.9266 -13.9238 -13.9214 -13.9210 -13.9207
   -13.9202 -13.9200 -13.9194 -13.9192 -13.9177 -13.9176 -13.9159 -13.9159
   -13.9158 -13.9156 -13.9151 -13.9151 -13.9146 -13.9146 -13.9142 -13.9142
   -13.9142 -13.9140 -13.9139 -13.9131 -13.9131 -13.9127 -13.9123 -13.9122
   -13.9119 -13.9109 -13.9103 -13.9095 -13.9089 -13.9083 -13.9072 -13.9069
   -13.9055 -13.9053 -13.9050 -13.9049 -13.9039 -13.9037 -13.9026 -13.9021
   -13.9020 -13.8996 -13.8986 -13.8983 -13.8977 -13.8975 -13.8971 -13.8963
   -13.8962 -13.8960 -13.8959 -13.8957 -13.8954 -13.8948 -13.8947 -13.8945
   -13.8944 -13.8942 -13.8941 -13.8941 -13.8938 -13.8927 -13.8926 -13.8926
   -13.8919 -13.8918 -13.8917 -13.8915 -13.8912 -13.8910 -13.8910 -13.8905
   -13.8904 -13.8904 -13.8902 -13.8900 -13.8897 -13.8888 -13.8887 -13.8882
   -13.8881 -13.8878 -13.8876 -13.8873 -13.8867 -13.8866 -13.8862 -13.8855
   -13.8855 -13.8853 -13.8851 -13.8850 -13.8846 -13.8845 -13.8840 -13.8837
   -13.8831 -13.8825 -13.8813 -13.8802 -13.8793 -13.8778 -10.2582  -9.7908
    -9.7876  -9.7875  -9.7844  -9.3418  -9.3412  -9.3384  -9.3379  -9.1867
    -9.1867  -8.8167  -8.8147  -8.8128  -8.8127  -8.8125  -8.8124  -8.8105
    -8.8087  -8.5496  -8.5480  -8.5477  -8.5459  -8.4922  -8.4904  -8.4903
    -8.4895  -8.4887  -8.4879  -8.4878  -8.4863  -8.4739  -8.4738  -8.4706
    -8.4703  -7.9454  -7.9435  -7.9426  -7.9426  -7.9414  -7.9414  -7.9407
    -7.9392  -7.8869  -7.8857  -7.8857  -7.8856  -7.8851  -7.8850  -7.8845
    -7.8838  -7.5844  -7.5843  -7.5829  -7.5827  -7.4329  -7.4327  -7.1657
    -7.1657  -7.1070  -7.1052  -7.1050  -7.1033  -6.9726  -6.9710  -6.9698
    -6.9682  -6.7964  -6.7960  -6.7957  -6.7956  -6.7946  -6.7945  -6.7943
    -6.7943  -6.7334  -6.6776  -6.6772  -6.6771  -6.6771  -6.5986  -6.5970
    -6.5954  -6.5954  -6.5950  -6.5949  -6.5933  -6.5929  -6.5881  -6.5861
    -6.5853  -6.5832  -6.5766  -6.5756  -6.5744  -6.5741  -6.5739  -6.5739
    -6.5728  -6.5703  -6.5030  -6.5014  -6.5012  -6.5010  -6.5004  -6.5000
    -6.4992  -6.4981   0.4405   0.4863   0.4863   1.2354   1.2362   1.2374
     1.2374   1.2376   1.2378   1.2387   1.2396   1.2917   1.2949   1.2956
     1.2982   1.3104   1.3111   1.3131   1.3132   1.3135   1.3135   1.3154
     1.3170   1.8121   1.8133   1.8141   1.8145   1.8151   1.8156   1.8164
     1.8175   2.2345   2.2359   2.2377   2.2392   2.8195   2.8199   2.8209
     2.8213   2.8213   2.8216   2.8226   2.8230   3.3705   3.3706   3.4052
     3.4062   3.4065   3.4076   3.6813   3.6823   3.6842   3.6851   3.8346
     3.8353   3.8364   3.8369   3.8371   3.8375   3.8385   3.8393   4.1538
     4.1544   4.1554   4.1555   4.1558   4.1560   4.1570   4.1576   4.6103
     4.6113   4.6117   4.6118   4.6121   4.6123   4.6126   4.6137   4.9195
     4.9200   4.9211   4.9212   4.9221   4.9225   4.9227   4.9227   4.9280
     4.9284   5.0070   5.0076   5.0086   5.0087   5.0096   5.0098   5.0109
     5.0117   5.2209   5.2210   5.4179   5.4188   5.4196   5.4203   5.5908
     5.5923   5.5932   5.5938   5.5942   5.5942   5.5953   5.5956   5.5983
     5.5984   5.5998   5.6007   5.6666   5.6667   5.6676   5.6678   5.6684
     5.6685   5.6697   5.6700   5.7510   5.8838   5.8846   5.8858   5.8866
     6.1674   6.1703   6.1705   6.1734   6.1903   6.3698   6.3698   6.3699
     6.3699   6.4039   6.4039   6.4803   6.4805   6.4825   6.4825   6.4830
     6.4831   6.4835   6.4836   6.4840   6.4841   6.4845   6.4846   6.6754
     6.6762   6.6770   6.6774   6.6781   6.6784   6.6792   6.6802   6.7634
     6.7649   6.7654   6.7670   7.0535   7.0540   7.0566   7.0571   7.0635
     7.0652   7.0663   7.0680   7.1746   7.2100   7.2112   7.2118   7.2129
     7.2483   7.2483   7.5761   7.5775   7.5787   7.5800   7.6364   7.6378
     7.6383   7.6398   7.8599   7.8600   7.8610   7.8610   7.8617   7.8617
     7.8626   7.8628   7.9040   7.9047   7.9052   7.9054   7.9059   7.9061
     7.9065   7.9073   8.0720   8.0928   8.0936   8.0936   8.0944   8.0951
     8.0958   8.0959   8.0966   8.1625   8.1638   8.1645   8.1658   8.3022
     8.3031   8.3041   8.3051   8.4448   8.4450   8.4463   8.4465   8.4862
     8.4863   8.4874   8.4875   8.4881   8.4882   8.4893   8.4895   8.5170
     8.5172   8.6091   8.6109   8.6113   8.6128   8.6244   8.6262   8.6265
     8.6289   8.6491   8.6493   8.6500   8.6506   8.6514   8.6521   8.6527
     8.6528   8.7145   8.7160   8.7170   8.7190   8.9310   8.9311   8.9315
     8.9318   8.9329   8.9330   8.9333   8.9335   9.0426   9.0430   9.0448
     9.0448   9.0452   9.0453   9.0467   9.0472   9.1429   9.1435   9.1442
     9.1443   9.1528   9.1528   9.1533   9.1540   9.1546   9.1552   9.1554
     9.1560   9.2539   9.2541   9.2553   9.2560   9.2565   9.2573   9.2585
     9.2589   9.2842   9.2847   9.2870   9.2875   9.4634   9.4635   9.5284
     9.5288   9.5311   9.5318   9.5373   9.5380   9.5400   9.5402   9.5405
     9.5406   9.5425   9.5438   9.5824   9.5826   9.5835   9.5842   9.5849
     9.5857   9.5868   9.5874   9.6790   9.6810   9.6812   9.6827   9.7106
     9.7112   9.9172   9.9198   9.9198   9.9226  10.4932

          k = 0.0000 0.0000-0.3248 ( 83134 PWs)   bands (ev):

   -14.2828 -14.2821 -14.2490 -14.2481 -14.2475 -14.2463 -14.2276 -14.2271
   -14.2269 -14.2266 -14.2264 -14.2258 -14.2255 -14.2254 -14.2242 -14.2241
   -14.2241 -14.2238 -14.2158 -14.2140 -14.2109 -14.2102 -14.2031 -14.2022
   -14.2016 -14.2015 -14.2014 -14.2008 -14.1990 -14.1987 -14.1982 -14.1981
   -14.1967 -14.1962 -14.1961 -14.1961 -14.1955 -14.1954 -14.1948 -14.1948
   -14.1944 -14.1938 -14.1936 -14.1927 -14.1897 -14.1891 -14.1889 -14.1873
   -14.1710 -14.1702 -14.1697 -14.1689 -14.1311 -14.1304 -14.0853 -14.0851
   -14.0846 -14.0846 -14.0571 -14.0564 -14.0562 -14.0559 -14.0557 -14.0555
   -14.0553 -14.0548 -14.0497 -14.0488 -14.0483 -14.0479 -14.0459 -14.0456
   -14.0449 -14.0439 -14.0106 -14.0106 -14.0105 -14.0103 -13.9979 -13.9969
   -13.9962 -13.9957 -13.9955 -13.9953 -13.9952 -13.9949 -13.9943 -13.9923
   -13.9907 -13.9896 -13.9884 -13.9882 -13.9879 -13.9878 -13.9872 -13.9870
   -13.9870 -13.9866 -13.9861 -13.9861 -13.9861 -13.9856 -13.9855 -13.9844
   -13.9844 -13.9832 -13.9828 -13.9825 -13.9814 -13.9814 -13.9800 -13.9792
   -13.9776 -13.9758 -13.9749 -13.9728 -13.9700 -13.9699 -13.9671 -13.9648
   -13.9578 -13.9570 -13.9563 -13.9555 -13.9450 -13.9423 -13.9414 -13.9405
   -13.9402 -13.9397 -13.9395 -13.9385 -13.9377 -13.9377 -13.9375 -13.9375
   -13.9360 -13.9360 -13.9360 -13.9359 -13.9357 -13.9356 -13.9356 -13.9355
   -13.9352 -13.9352 -13.9348 -13.9347 -13.9344 -13.9344 -13.9338 -13.9335
   -13.9333 -13.9326 -13.9324 -13.9324 -13.9320 -13.9317 -13.9307 -13.9299
   -13.9291 -13.9268 -13.9260 -13.9238 -13.9231 -13.9227 -13.9217 -13.9216
   -13.9204 -13.9203 -13.9202 -13.9201 -13.9199 -13.9198 -13.9188 -13.9187
   -13.9187 -13.9187 -13.9177 -13.9177 -13.9169 -13.9167 -13.9166 -13.9154
   -13.9153 -13.9151 -13.9146 -13.9145 -13.9143 -13.9141 -13.9137 -13.9135
   -13.9123 -13.9123 -13.9114 -13.9109 -13.9102 -13.9089 -13.9087 -13.9074
   -13.9065 -13.9059 -13.9059 -13.9048 -13.9046 -13.9032 -13.9026 -13.9018
   -13.9012 -13.9009 -13.9008 -13.9003 -13.8989 -13.8986 -13.8965 -13.8962
   -13.8961 -13.8961 -13.8946 -13.8946 -13.8945 -13.8942 -13.8937 -13.8934
   -13.8932 -13.8931 -13.8931 -13.8929 -13.8929 -13.8926 -13.8926 -13.8921
   -13.8921 -13.8919 -13.8915 -13.8914 -13.8913 -13.8910 -13.8908 -13.8902
   -13.8900 -13.8889 -13.8887 -13.8886 -13.8886 -13.8882 -13.8881 -13.8881
   -13.8881 -13.8877 -13.8867 -13.8867 -13.8863 -13.8862 -13.8860 -13.8860
   -13.8858 -13.8856 -13.8852 -13.8849 -13.8847 -13.8845 -13.8842 -13.8837
   -13.8835 -13.8830 -13.8808 -13.8802 -13.8790 -13.8778 -10.1386 -10.1381
    -9.6741  -9.6715  -9.6706  -9.6679  -9.2364  -9.2363  -9.0914  -9.0905
    -9.0905  -9.0898  -8.8676  -8.8650  -8.8646  -8.8619  -8.7300  -8.7273
    -8.7264  -8.7262  -8.7257  -8.7255  -8.7245  -8.7219  -8.4859  -8.4833
    -8.4831  -8.4804  -8.3892  -8.3891  -8.3881  -8.3880  -8.1834  -8.1814
    -8.1801  -8.1800  -8.1784  -8.1782  -8.1769  -8.1748  -7.8812  -7.8811
    -7.8797  -7.8794  -7.8793  -7.8790  -7.8775  -7.8774  -7.8409  -7.8397
    -7.4120  -7.4116  -7.4099  -7.4096  -7.3753  -7.3726  -7.3721  -7.3695
    -7.3434  -7.3428  -7.3182  -7.3167  -7.3153  -7.3135  -6.8052  -6.8048
    -6.7441  -6.7415  -6.7401  -6.7400  -6.7384  -6.7383  -6.7369  -6.7349
    -6.6879  -6.6853  -6.6845  -6.6844  -6.6837  -6.6836  -6.6827  -6.6817
    -6.6739  -6.6726  -6.6717  -6.6694  -6.6469  -6.6462  -6.6459  -6.6450
    -6.5905  -6.5888  -6.5827  -6.5825  -6.5806  -6.5799  -6.5096  -6.5093
    -6.5081  -6.5081  -6.5026  -6.5011  -6.5009  -6.5007  -6.4998  -6.4998
    -6.4989  -6.4979   0.6595   0.6614   0.7086   0.7092   0.7096   0.7101
     1.2545   1.2559   1.2565   1.2571   1.2573   1.2579   1.2586   1.2599
     1.4034   1.4038   1.4049   1.4054   1.4085   1.4091   1.4101   1.4106
     1.5516   1.5543   1.5550   1.5579   2.1272   2.1272   2.1274   2.1274
     2.2553   2.2559   2.4257   2.4272   2.4278   2.4279   2.4283   2.4284
     2.4291   2.4305   3.0924   3.0951   3.0963   3.0990   3.2182   3.2187
     3.2192   3.2197   3.5662   3.5684   3.5686   3.5708   3.6744   3.6747
     3.6755   3.6758   3.9014   3.9022   3.9024   3.9029   3.9029   3.9035
     3.9037   3.9044   4.4043   4.4049   4.4050   4.4055   4.5704   4.5710
     4.8090   4.8093   4.8109   4.8109   4.8145   4.8147   4.8160   4.8164
     4.8591   4.8612   4.8619   4.8620   4.8627   4.8627   4.8635   4.8655
     5.2078   5.2083   5.2095   5.2101   5.2531   5.2533   5.2543   5.2543
     5.2550   5.2552   5.2560   5.2563   5.3808   5.3830   5.6175   5.6190
     5.6201   5.6207   5.6220   5.6221   5.6225   5.6226   5.6242   5.6247
     5.6256   5.6263   5.6401   5.6405   5.6417   5.6419   5.6420   5.6422
     5.6434   5.6438   5.6519   5.6529   5.6531   5.6544   5.7865   5.7876
     5.7880   5.7882   5.7883   5.7884   5.7889   5.7901   5.8575   5.8581
     5.9282   5.9305   5.9320   5.9344   6.2508   6.2531   6.2539   6.2564
     6.4392   6.4405   6.6487   6.6491   6.7092   6.7095   6.7841   6.7860
     6.7883   6.7905   6.9267   6.9277   6.9289   6.9298   7.1849   7.1860
     7.1871   7.1883   7.1905   7.1923   7.1927   7.1944   7.3346   7.3352
     7.3356   7.3362   7.3554   7.3576   7.3582   7.3584   7.3589   7.3591
     7.3599   7.3620   7.4244   7.4253   7.4257   7.4267   7.5544   7.5553
     7.5634   7.5639   7.5640   7.5645   7.6916   7.6922   7.6933   7.6938
     7.6939   7.6945   7.6957   7.6962   7.7594   7.7610   7.7611   7.7619
     8.0670   8.0695   8.0705   8.0730   8.1296   8.1297   8.1299   8.1301
     8.2129   8.2134   8.2148   8.2152   8.2158   8.2161   8.2169   8.2176
     8.2224   8.2226   8.2227   8.2242   8.4166   8.4170   8.4173   8.4176
     8.4180   8.4182   8.4185   8.4189   8.4939   8.4961   8.4984   8.5004
     8.5224   8.5241   8.5250   8.5265   8.5455   8.5460   8.6475   8.6503
     8.6902   8.6908   8.7122   8.7137   8.7146   8.7164   8.7352   8.7352
     8.7360   8.7362   8.9724   8.9725   8.9735   8.9736   8.9739   8.9744
     8.9749   8.9752   8.9817   8.9820   8.9830   8.9832   8.9840   8.9845
     8.9858   8.9860   9.0337   9.0341   9.0829   9.0831   9.0837   9.0838
     9.1711   9.1719   9.1728   9.1734   9.1869   9.1870   9.1878   9.1885
     9.1888   9.1899   9.1910   9.1911   9.2728   9.2746   9.2762   9.2779
     9.3396   9.3399   9.3409   9.3413   9.4200   9.4201   9.4214   9.4219
     9.4229   9.4234   9.4247   9.4249   9.5113   9.5126   9.5129   9.5131
     9.5183   9.5205   9.5206   9.5235   9.5659   9.5673   9.5681   9.5683
     9.5688   9.5690   9.5704   9.5722   9.6938   9.6946   9.7013   9.7016
     9.8143   9.8162   9.8174   9.8196  10.3167  10.3172

          k = 0.0000-0.3248-0.3248 ( 83080 PWs)   bands (ev):

   -14.2771 -14.2753 -14.2724 -14.2708 -14.2227 -14.2206 -14.2204 -14.2200
   -14.2196 -14.2193 -14.2192 -14.2189 -14.2182 -14.2177 -14.2174 -14.2171
   -14.2170 -14.2170 -14.2156 -14.2156 -14.2155 -14.2153 -14.2150 -14.2146
   -14.2138 -14.2138 -14.2133 -14.2129 -14.2125 -14.2117 -14.2102 -14.2089
   -14.2077 -14.2075 -14.2073 -14.2070 -14.2056 -14.2030 -14.1829 -14.1824
   -14.1822 -14.1822 -14.1811 -14.1811 -14.1807 -14.1802 -14.1801 -14.1797
   -14.1795 -14.1787 -14.1427 -14.1413 -14.1385 -14.1368 -14.0858 -14.0852
   -14.0841 -14.0841 -14.0821 -14.0821 -14.0810 -14.0806 -14.0602 -14.0601
   -14.0601 -14.0600 -14.0224 -14.0210 -14.0207 -14.0203 -14.0192 -14.0190
   -14.0189 -14.0188 -14.0187 -14.0187 -14.0185 -14.0183 -14.0171 -14.0166
   -14.0161 -14.0146 -13.9947 -13.9922 -13.9913 -13.9910 -13.9906 -13.9899
   -13.9898 -13.9895 -13.9886 -13.9885 -13.9875 -13.9874 -13.9873 -13.9870
   -13.9868 -13.9864 -13.9859 -13.9859 -13.9857 -13.9854 -13.9854 -13.9852
   -13.9840 -13.9831 -13.9825 -13.9815 -13.9815 -13.9802 -13.9792 -13.9792
   -13.9779 -13.9767 -13.9734 -13.9727 -13.9715 -13.9714 -13.9711 -13.9706
   -13.9693 -13.9666 -13.9457 -13.9443 -13.9437 -13.9415 -13.9409 -13.9401
   -13.9397 -13.9394 -13.9392 -13.9387 -13.9384 -13.9375 -13.9365 -13.9364
   -13.9363 -13.9362 -13.9352 -13.9351 -13.9350 -13.9349 -13.9346 -13.9346
   -13.9344 -13.9344 -13.9340 -13.9340 -13.9340 -13.9339 -13.9328 -13.9327
   -13.9326 -13.9326 -13.9320 -13.9315 -13.9307 -13.9302 -13.9300 -13.9291
   -13.9285 -13.9260 -13.9253 -13.9236 -13.9236 -13.9225 -13.9223 -13.9221
   -13.9217 -13.9216 -13.9194 -13.9188 -13.9184 -13.9183 -13.9180 -13.9165
   -13.9163 -13.9163 -13.9154 -13.9154 -13.9153 -13.9152 -13.9147 -13.9146
   -13.9143 -13.9142 -13.9139 -13.9138 -13.9134 -13.9129 -13.9128 -13.9125
   -13.9123 -13.9122 -13.9120 -13.9118 -13.9109 -13.9102 -13.9094 -13.9089
   -13.9082 -13.9055 -13.9046 -13.9029 -13.9026 -13.9021 -13.9016 -13.9011
   -13.8998 -13.8996 -13.8993 -13.8988 -13.8985 -13.8980 -13.8977 -13.8976
   -13.8975 -13.8973 -13.8965 -13.8963 -13.8962 -13.8961 -13.8957 -13.8956
   -13.8955 -13.8954 -13.8952 -13.8952 -13.8947 -13.8945 -13.8934 -13.8924
   -13.8916 -13.8911 -13.8911 -13.8909 -13.8904 -13.8899 -13.8897 -13.8894
   -13.8888 -13.8887 -13.8886 -13.8884 -13.8884 -13.8883 -13.8882 -13.8877
   -13.8876 -13.8873 -13.8872 -13.8871 -13.8871 -13.8868 -13.8868 -13.8865
   -13.8864 -13.8856 -13.8855 -13.8849 -13.8848 -13.8848 -13.8842 -13.8837
   -13.8830 -13.8825 -13.8812 -13.8804 -13.8795 -13.8774 -10.0230 -10.0203
   -10.0175 -10.0148  -9.1372  -9.1359  -9.1339  -9.1326  -9.1321  -9.1308
    -9.1288  -9.1277  -9.0008  -8.9991  -8.9974  -8.9973  -8.9946  -8.9945
    -8.9928  -8.9910  -8.6662  -8.6661  -8.3313  -8.3283  -8.3277  -8.3270
    -8.3262  -8.3261  -8.3250  -8.3249  -8.3247  -8.3247  -8.3235  -8.3234
    -8.3226  -8.3219  -8.3213  -8.3185  -8.0923  -8.0923  -8.0923  -8.0922
    -7.9347  -7.9338  -7.9316  -7.9308  -7.6327  -7.6326  -7.5337  -7.5321
    -7.5314  -7.5307  -7.5300  -7.5294  -7.5287  -7.5271  -7.4845  -7.4843
    -7.4831  -7.4829  -6.9817  -6.9794  -6.9780  -6.9773  -6.9764  -6.9756
    -6.9742  -6.9720  -6.8333  -6.8332  -6.8332  -6.8331  -6.7175  -6.7170
    -6.7167  -6.7166  -6.7157  -6.7155  -6.7155  -6.7154  -6.5858  -6.5830
    -6.5814  -6.5811  -6.5804  -6.5798  -6.5794  -6.5793  -6.5789  -6.5789
    -6.5785  -6.5778  -6.5771  -6.5769  -6.5752  -6.5724  -6.5560  -6.5543
    -6.5518  -6.5494  -6.5092  -6.5087  -6.5077  -6.5071  -6.5067  -6.5061
    -6.5044  -6.5042   0.8551   0.8562   0.8579   0.8580   0.8607   0.8608
     0.8626   0.8633   0.8918   0.8948   0.8974   0.9008   1.2665   1.2665
     1.2666   1.2666   1.7940   1.7945   1.7965   1.7975   1.7977   1.7985
     1.7988   1.7988   1.7989   1.7989   1.7992   1.8000   1.8001   1.8012
     1.8031   1.8037   2.5001   2.5021   2.5033   2.5047   2.5050   2.5065
     2.5077   2.5097   3.0207   3.0217   3.0223   3.0227   3.0236   3.0241
     3.0247   3.0257   3.4801   3.4801   3.9761   3.9769   3.9779   3.9780
     3.9785   3.9787   3.9796   3.9804   4.2300   4.2313   4.2319   4.2325
     4.2330   4.2332   4.2336   4.2336   4.2337   4.2338   4.2342   4.2344
     4.2348   4.2354   4.2360   4.2374   4.4248   4.4261   4.4273   4.4286
     4.7480   4.7480   4.7481   4.7481   5.2376   5.2388   5.2392   5.2403
     5.3445   5.3449   5.3451   5.3454   5.3454   5.3458   5.3459   5.3462
     5.4190   5.4213   5.4217   5.4220   5.4222   5.4224   5.4229   5.4245
     5.4365   5.4376   5.4385   5.4388   5.4400   5.4402   5.4404   5.4405
     5.4409   5.4410   5.4414   5.4416   5.4424   5.4426   5.4448   5.4456
     5.5638   5.5639   5.9583   5.9608   5.9637   5.9662   6.1982   6.1996
     6.2005   6.2005   6.2009   6.2010   6.2018   6.2031   6.3306   6.3309
     6.3315   6.3316   6.3323   6.3323   6.3330   6.3332   6.4738   6.4759
     6.4775   6.4779   6.4780   6.4785   6.4801   6.4821   6.5946   6.5946
     6.5946   6.5947   6.6402   6.6423   6.6449   6.6473   6.6887   6.6891
     6.6910   6.6925   6.6929   6.6944   6.6964   6.6967   6.8227   6.8228
     6.8228   6.8228   6.8407   6.8409   7.5973   7.5995   7.6000   7.6021
     7.7349   7.7365   7.7391   7.7406   7.7767   7.7775   7.7789   7.7791
     7.7815   7.7817   7.7830   7.7836   7.8420   7.8443   7.8457   7.8463
     7.8467   7.8474   7.8487   7.8513   7.9355   7.9359   7.9360   7.9366
     7.9370   7.9375   7.9377   7.9380   8.2057   8.2063   8.2075   8.2083
     8.2085   8.2086   8.2091   8.2091   8.2094   8.2094   8.2099   8.2101
     8.2103   8.2109   8.2123   8.2127   8.2300   8.2303   8.4161   8.4162
     8.4903   8.4905   8.4917   8.4919   8.6259   8.6288   8.6297   8.6305
     8.6312   8.6321   8.6329   8.6358   8.6658   8.6666   8.6670   8.6679
     8.6811   8.6823   8.6836   8.6837   8.6838   8.6842   8.6850   8.6851
     8.6853   8.6853   8.6862   8.6866   8.6867   8.6870   8.6880   8.6894
     8.7058   8.7072   8.7088   8.7109   9.0711   9.0714   9.0778   9.0781
     9.0789   9.0793   9.0794   9.0799   9.0804   9.0809   9.1719   9.1724
     9.1736   9.1740   9.1750   9.1755   9.1764   9.1771   9.3065   9.3067
     9.3073   9.3074   9.3113   9.3114   9.3116   9.3121   9.3707   9.3713
     9.3727   9.3736   9.3747   9.3748   9.3755   9.3756   9.3760   9.3760
     9.3769   9.3769   9.3782   9.3790   9.3808   9.3813   9.5475   9.5494
     9.5508   9.5510   9.5536   9.5537   9.5555   9.5561   9.5609   9.5617
     9.5624   9.5642   9.5643   9.5661   9.5676   9.5680   9.5912   9.5913
     9.5938   9.5946  10.1690  10.1712  10.1741  10.1765

          k = 0.3333 0.0000 0.0000 ( 83060 PWs)   bands (ev):

   -14.2718 -14.2716 -14.2699 -14.2694 -14.2691 -14.2659 -14.2647 -14.2638
   -14.2634 -14.2597 -14.2593 -14.2593 -14.2579 -14.2377 -14.2375 -14.2366
   -14.2355 -14.2314 -14.2306 -14.2282 -14.2270 -14.2263 -14.2246 -14.2077
   -14.2065 -14.2061 -14.2048 -14.2005 -14.1871 -14.1864 -14.1859 -14.1845
   -14.1648 -14.1644 -14.1637 -14.1633 -14.1632 -14.1620 -14.1616 -14.1604
   -14.1384 -14.1381 -14.1379 -14.1374 -14.1370 -14.1369 -14.1365 -14.1355
   -14.1193 -14.1189 -14.1181 -14.1175 -14.1001 -14.0997 -14.0985 -14.0970
   -14.0968 -14.0959 -14.0952 -14.0681 -14.0676 -14.0672 -14.0669 -14.0529
   -14.0525 -14.0520 -14.0516 -14.0479 -14.0338 -14.0330 -14.0326 -14.0318
   -14.0313 -14.0307 -14.0306 -14.0302 -14.0274 -14.0261 -14.0241 -14.0229
   -14.0210 -14.0204 -14.0200 -14.0199 -14.0190 -14.0185 -14.0184 -14.0178
   -14.0176 -14.0171 -14.0169 -14.0161 -14.0143 -14.0128 -14.0106 -14.0088
   -14.0043 -14.0032 -14.0030 -14.0016 -13.9951 -13.9947 -13.9939 -13.9933
   -13.9838 -13.9829 -13.9827 -13.9821 -13.9808 -13.9712 -13.9695 -13.9675
   -13.9670 -13.9664 -13.9661 -13.9638 -13.9635 -13.9595 -13.9578 -13.9568
   -13.9561 -13.9551 -13.9540 -13.9525 -13.9522 -13.9506 -13.9499 -13.9498
   -13.9492 -13.9490 -13.9490 -13.9489 -13.9478 -13.9478 -13.9471 -13.9469
   -13.9466 -13.9459 -13.9455 -13.9453 -13.9452 -13.9445 -13.9443 -13.9437
   -13.9436 -13.9430 -13.9420 -13.9418 -13.9416 -13.9411 -13.9407 -13.9394
   -13.9378 -13.9375 -13.9368 -13.9363 -13.9359 -13.9351 -13.9343 -13.9337
   -13.9272 -13.9245 -13.9239 -13.9224 -13.9222 -13.9196 -13.9188 -13.9185
   -13.9171 -13.9163 -13.9161 -13.9160 -13.9157 -13.9152 -13.9148 -13.9135
   -13.9129 -13.9128 -13.9116 -13.9107 -13.9104 -13.9097 -13.9096 -13.9093
   -13.9079 -13.9076 -13.9061 -13.9054 -13.9044 -13.9028 -13.9024 -13.9022
   -13.9020 -13.9012 -13.9012 -13.9011 -13.9010 -13.9008 -13.9007 -13.9005
   -13.9001 -13.8995 -13.8995 -13.8990 -13.8987 -13.8985 -13.8983 -13.8973
   -13.8970 -13.8966 -13.8957 -13.8954 -13.8953 -13.8950 -13.8949 -13.8942
   -13.8939 -13.8938 -13.8935 -13.8934 -13.8932 -13.8930 -13.8928 -13.8927
   -13.8925 -13.8923 -13.8919 -13.8915 -13.8915 -13.8913 -13.8910 -13.8908
   -13.8904 -13.8901 -13.8898 -13.8897 -13.8893 -13.8892 -13.8889 -13.8888
   -13.8887 -13.8885 -13.8885 -13.8882 -13.8880 -13.8876 -13.8874 -13.8872
   -13.8871 -13.8867 -13.8863 -13.8863 -13.8862 -13.8861 -13.8859 -13.8856
   -13.8854 -13.8850 -13.8848 -13.8845 -13.8841 -13.8840 -13.8836 -13.8834
   -13.8829 -13.8821 -13.8805 -13.8803 -13.8783 -13.8778 -10.1350  -9.7696
    -9.6720  -9.6689  -9.6687  -9.6657  -9.3302  -9.3271  -9.3269  -9.3240
    -9.2331  -9.2327  -9.2299  -9.2294  -8.9273  -8.9269  -8.9241  -8.9238
    -8.4595  -8.4462  -8.4447  -8.4444  -8.4426  -8.3947  -8.3946  -8.3915
    -8.3912  -8.2462  -8.2439  -8.2434  -8.2412  -8.1868  -8.1858  -8.1833
    -8.1831  -8.1772  -8.1757  -8.1744  -8.1740  -8.0633  -8.0621  -8.0609
    -8.0597  -7.8586  -7.8570  -7.8558  -7.8550  -7.8502  -7.8494  -7.8485
    -7.8461  -7.7275  -7.4678  -7.4676  -7.4663  -7.4660  -7.3209  -7.3208
    -7.1632  -7.1630  -7.1617  -7.1614  -7.0287  -7.0284  -7.0196  -7.0180
    -7.0177  -7.0160  -6.9062  -6.9045  -6.9035  -6.9018  -6.8624  -6.8030
    -6.8012  -6.8010  -6.7993  -6.7550  -6.7466  -6.7451  -6.7442  -6.7424
    -6.5587  -6.5564  -6.5556  -6.5538  -6.5429  -6.5403  -6.5398  -6.5391
    -6.5349  -6.5348  -6.5342  -6.5315  -6.5074  -6.5056  -6.5048  -6.5043
    -6.5032  -6.5024  -6.5017  -6.5013  -6.4753  -6.4739  -6.4739  -6.4720
    -6.4329  -6.4323   0.3947   0.4245   0.7541   0.7549   0.7561   0.7570
     0.9531   1.2344   1.2345   1.2367   1.2368   1.3242   1.3273   1.3280
     1.3308   1.3584   1.3612   1.3617   1.3646   1.3895   1.3914   1.3917
     1.3937   1.8759   1.8772   1.8781   1.8787   1.8788   1.8790   1.8801
     1.8811   1.9342   2.1870   2.1885   2.1902   2.1916   2.6551   2.6559
     2.6578   2.6585   3.3882   3.3892   3.3911   3.3918   3.4919   3.4930
     3.4933   3.4942   3.6181   3.6191   3.6192   3.6202   3.8598   3.8613
     3.8616   3.8630   4.0513   4.0522   4.0527   4.0535   4.2299   4.2313
     4.2318   4.2330   4.2759   4.2759   4.2777   4.2779   4.3356   4.3358
     4.3384   4.3389   4.5198   4.5204   4.5215   4.5221   4.7105   4.7112
     4.7118   4.7126   4.9006   4.9011   4.9016   4.9020   4.9797   4.9797
     5.0481   5.0957   5.0969   5.0973   5.0979   5.1010   5.1020   5.1022
     5.1031   5.1087   5.1294   5.1297   5.1299   5.1305   5.2222   5.3532
     5.3532   5.4830   5.5450   5.5458   5.5467   5.5474   5.7151   5.7151
     5.7820   5.7871   5.7880   5.7893   5.7901   5.8235   5.8240   5.8249
     5.8253   5.9350   5.9361   5.9374   5.9385   5.9823   5.9825   5.9835
     5.9838   6.1908   6.1910   6.1921   6.1923   6.3139   6.3662   6.3665
     6.3689   6.3691   6.4312   6.4324   6.4330   6.4343   6.6283   6.6292
     6.6303   6.6311   6.6756   6.7062   6.7070   6.7087   6.7093   6.7300
     6.7310   6.7323   6.7331   6.7596   6.7752   6.7766   6.7774   6.7789
     6.8113   6.8114   6.8330   6.8330   6.9103   6.9105   6.9118   6.9120
     6.9261   7.1549   7.1569   7.1583   7.1585   7.1602   7.1606   7.1617
     7.1639   7.3744   7.4114   7.4118   7.4123   7.4129   7.4581   7.4590
     7.4595   7.4602   7.7834   7.7840   7.7843   7.7849   7.7950   7.7959
     7.7970   7.7980   7.8617   7.8629   7.8642   7.8655   7.9300   7.9305
     7.9318   7.9323   7.9479   7.9480   7.9691   7.9960   7.9965   7.9970
     7.9975   8.1101   8.1112   8.1114   8.1126   8.2318   8.2330   8.2336
     8.2336   8.2339   8.2346   8.2355   8.2359   8.2456   8.2461   8.2468
     8.2470   8.3085   8.3089   8.3096   8.3100   8.4060   8.4062   8.4081
     8.4082   8.4938   8.4953   8.4958   8.4972   8.5757   8.5758   8.5774
     8.5775   8.6529   8.6540   8.6547   8.6558   8.7452   8.7639   8.7640
     8.8630   8.8638   8.8649   8.8652   8.8770   8.8779   8.8787   8.8804
     8.8965   8.8975   8.8984   8.8997   8.9855   8.9867   8.9869   8.9881
     8.9901   8.9908   8.9920   8.9927   8.9983   8.9990   8.9996   9.0005
     9.0330   9.0336   9.0341   9.0347   9.1428   9.1436   9.1451   9.1460
     9.1722   9.1726   9.1736   9.1745   9.3003   9.3008   9.3032   9.3036
     9.3052   9.3056   9.3081   9.3086   9.3665   9.3673   9.3680   9.3687
     9.3691   9.3695   9.3707   9.3714   9.4962   9.4963   9.6069   9.6088
     9.6090   9.6106   9.6804   9.6808   9.6867   9.6872   9.6890   9.6900
     9.7457   9.7468   9.7484   9.7494   9.8119   9.8145   9.8147   9.8174
     9.9168   9.9194   9.9195   9.9222  10.0259  10.3768

          k = 0.3333 0.0000-0.3248 ( 83068 PWs)   bands (ev):

   -14.2759 -14.2752 -14.2742 -14.2732 -14.2721 -14.2718 -14.2591 -14.2584
   -14.2524 -14.2509 -14.2489 -14.2484 -14.2472 -14.2467 -14.2463 -14.2457
   -14.2435 -14.2422 -14.2405 -14.2389 -14.2233 -14.2224 -14.2218 -14.2206
   -14.1969 -14.1962 -14.1904 -14.1882 -14.1854 -14.1853 -14.1823 -14.1810
   -14.1805 -14.1802 -14.1798 -14.1788 -14.1656 -14.1656 -14.1455 -14.1447
   -14.1442 -14.1436 -14.1425 -14.1413 -14.1409 -14.1394 -14.1303 -14.1295
   -14.1292 -14.1288 -14.1111 -14.1105 -14.1052 -14.1045 -14.0875 -14.0870
   -14.0789 -14.0784 -14.0780 -14.0775 -14.0765 -14.0761 -14.0759 -14.0746
   -14.0476 -14.0475 -14.0369 -14.0356 -14.0351 -14.0348 -14.0333 -14.0325
   -14.0281 -14.0272 -14.0261 -14.0242 -14.0230 -14.0214 -14.0212 -14.0209
   -14.0206 -14.0204 -14.0201 -14.0195 -14.0191 -14.0189 -14.0188 -14.0186
   -14.0183 -14.0180 -14.0177 -14.0174 -14.0168 -14.0165 -14.0164 -14.0160
   -14.0150 -14.0142 -14.0126 -14.0105 -13.9989 -13.9983 -13.9852 -13.9851
   -13.9820 -13.9817 -13.9811 -13.9797 -13.9790 -13.9774 -13.9712 -13.9704
   -13.9699 -13.9685 -13.9672 -13.9656 -13.9629 -13.9627 -13.9591 -13.9585
   -13.9574 -13.9567 -13.9529 -13.9521 -13.9519 -13.9511 -13.9506 -13.9503
   -13.9492 -13.9490 -13.9488 -13.9487 -13.9480 -13.9476 -13.9476 -13.9471
   -13.9466 -13.9458 -13.9456 -13.9455 -13.9445 -13.9443 -13.9430 -13.9429
   -13.9426 -13.9424 -13.9423 -13.9416 -13.9413 -13.9409 -13.9396 -13.9383
   -13.9379 -13.9371 -13.9364 -13.9358 -13.9354 -13.9347 -13.9324 -13.9316
   -13.9310 -13.9292 -13.9229 -13.9210 -13.9195 -13.9181 -13.9175 -13.9172
   -13.9158 -13.9157 -13.9156 -13.9155 -13.9153 -13.9150 -13.9147 -13.9135
   -13.9131 -13.9128 -13.9115 -13.9104 -13.9096 -13.9092 -13.9087 -13.9081
   -13.9074 -13.9070 -13.9067 -13.9063 -13.9054 -13.9050 -13.9037 -13.9032
   -13.9027 -13.9022 -13.9017 -13.9016 -13.9006 -13.9004 -13.9001 -13.8996
   -13.8995 -13.8995 -13.8990 -13.8988 -13.8983 -13.8976 -13.8974 -13.8968
   -13.8967 -13.8962 -13.8960 -13.8954 -13.8953 -13.8951 -13.8951 -13.8949
   -13.8946 -13.8941 -13.8938 -13.8936 -13.8935 -13.8930 -13.8925 -13.8921
   -13.8919 -13.8918 -13.8914 -13.8912 -13.8911 -13.8908 -13.8906 -13.8904
   -13.8902 -13.8899 -13.8894 -13.8894 -13.8893 -13.8892 -13.8889 -13.8889
   -13.8889 -13.8886 -13.8885 -13.8884 -13.8880 -13.8877 -13.8875 -13.8874
   -13.8874 -13.8873 -13.8868 -13.8867 -13.8865 -13.8863 -13.8861 -13.8856
   -13.8855 -13.8853 -13.8851 -13.8849 -13.8845 -13.8844 -13.8837 -13.8833
   -13.8827 -13.8823 -13.8817 -13.8796 -13.8795 -13.8771 -10.0165 -10.0160
    -9.6569  -9.6562  -9.5578  -9.5552  -9.5543  -9.5516  -9.2243  -9.2218
    -9.2210  -9.2185  -9.1243  -9.1242  -8.8132  -8.8131  -8.7740  -8.7714
    -8.7708  -8.7682  -8.5180  -8.5155  -8.5144  -8.5120  -8.4022  -8.4011
    -8.3904  -8.3881  -8.3879  -8.3852  -8.1940  -8.1921  -8.1915  -8.1896
    -8.1445  -8.1425  -8.1421  -8.1400  -8.0369  -8.0368  -7.9256  -7.9237
    -7.9211  -7.9191  -7.8472  -7.8460  -7.8459  -7.8447  -7.7559  -7.7545
    -7.7438  -7.7425  -7.5161  -7.5144  -7.2790  -7.2763  -7.2756  -7.2731
    -7.2378  -7.2372  -7.2208  -7.2193  -7.2179  -7.2162  -7.0301  -7.0276
    -7.0263  -7.0240  -6.9712  -6.9694  -6.9682  -6.9670  -6.9645  -6.9636
    -6.7467  -6.7464  -6.6337  -6.6317  -6.6308  -6.6291  -6.6118  -6.6116
    -6.5934  -6.5913  -6.5854  -6.5836  -6.5582  -6.5558  -6.5533  -6.5516
    -6.5482  -6.5471  -6.5462  -6.5442  -6.5147  -6.5127  -6.5125  -6.5116
    -6.5057  -6.5053  -6.4970  -6.4956  -6.4950  -6.4926  -6.4608  -6.4590
    -6.4444  -6.4431   0.6507   0.6522   0.6603   0.6620   0.8158   0.8164
     0.8210   0.8217   1.0498   1.0507   1.0512   1.0518   1.0736   1.0745
     1.5109   1.5133   1.5141   1.5164   1.5666   1.5692   1.5699   1.5728
     1.7336   1.7337   1.7788   1.7793   1.7804   1.7809   1.9167   1.9175
     2.2737   2.2748   2.2788   2.2798   2.3162   2.3167   2.3953   2.3958
     2.9111   2.9133   2.9155   2.9178   3.1317   3.1331   3.1332   3.1346
     3.4972   3.4991   3.4993   3.5012   3.6176   3.6178   3.8323   3.8329
     3.8338   3.8344   4.1876   4.1881   4.1928   4.1935   4.2262   4.2267
     4.4517   4.4538   4.4539   4.4558   4.5342   4.5348   4.5877   4.5883
     4.5996   4.6001   4.6004   4.6009   4.6761   4.6762   4.6778   4.6780
     4.6789   4.6795   4.7880   4.7885   4.8170   4.8185   4.9777   4.9785
     4.9802   4.9809   5.0288   5.0306   5.0819   5.0823   5.1145   5.1148
     5.1322   5.1338   5.2424   5.2447   5.2776   5.2778   5.2785   5.2787
     5.3318   5.3333   5.3344   5.3358   5.4313   5.4316   5.6258   5.6277
     5.6285   5.6303   5.6929   5.6941   5.6947   5.6959   5.7838   5.7839
     5.7865   5.7866   5.9537   5.9539   5.9548   5.9549   5.9973   5.9985
     6.0678   6.0696   6.0713   6.0732   6.2134   6.2142   6.2147   6.2154
     6.3694   6.3720   6.4673   6.4690   6.4694   6.4710   6.5046   6.5059
     6.5377   6.5391   6.5444   6.5447   6.5455   6.5459   6.5554   6.5567
     6.5711   6.5714   6.7658   6.7683   6.8791   6.8801   6.8815   6.8825
     7.1036   7.1042   7.1046   7.1053   7.1289   7.1310   7.1310   7.1331
     7.2723   7.2725   7.3086   7.3090   7.3991   7.4007   7.4080   7.4092
     7.4101   7.4112   7.4128   7.4146   7.4404   7.4430   7.4431   7.4457
     7.5275   7.5290   7.5307   7.5322   7.5476   7.5478   7.6607   7.6611
     7.7516   7.7519   7.7524   7.7527   7.8346   7.8348   7.8882   7.8883
     7.8907   7.8909   7.9026   7.9027   8.0044   8.0053   8.0061   8.0071
     8.0272   8.0277   8.0598   8.0618   8.1324   8.1328   8.1496   8.1501
     8.1505   8.1512   8.2188   8.2196   8.2205   8.2213   8.2793   8.2794
     8.3484   8.3486   8.3796   8.3796   8.3805   8.3807   8.4465   8.4469
     8.4477   8.4481   8.4643   8.4647   8.5496   8.5505   8.5519   8.5528
     8.7050   8.7068   8.7078   8.7082   8.7110   8.7115   8.7122   8.7130
     8.7489   8.7512   8.7525   8.7531   8.8667   8.8676   8.8686   8.8688
     8.8690   8.8700   8.8711   8.8719   8.9257   8.9264   8.9276   8.9280
     8.9414   8.9435   9.0093   9.0117   9.0124   9.0145   9.0426   9.0430
     9.0515   9.0529   9.0531   9.0546   9.2339   9.2342   9.2391   9.2403
     9.2407   9.2417   9.3161   9.3165   9.3426   9.3453   9.3458   9.3482
     9.3735   9.3775   9.3785   9.3792   9.3810   9.3848   9.3961   9.3974
     9.3982   9.3993   9.4542   9.4545   9.4765   9.4771   9.4853   9.4859
     9.4879   9.4882   9.4977   9.5002   9.5005   9.5033   9.6314   9.6322
     9.6578   9.6581   9.8232   9.8250   9.8260   9.8279   9.8790   9.8807
     9.8820   9.8839   9.9967   9.9970  10.2553  10.2557

          k = 0.3333-0.3248-0.3248 ( 83032 PWs)   bands (ev):

   -14.2710 -14.2691 -14.2689 -14.2672 -14.2669 -14.2667 -14.2651 -14.2643
   -14.2624 -14.2618 -14.2614 -14.2602 -14.2519 -14.2502 -14.2473 -14.2457
   -14.2418 -14.2413 -14.2328 -14.2326 -14.2319 -14.2309 -14.1970 -14.1956
   -14.1929 -14.1919 -14.1896 -14.1877 -14.1837 -14.1832 -14.1822 -14.1819
   -14.1818 -14.1815 -14.1799 -14.1772 -14.1602 -14.1598 -14.1579 -14.1573
   -14.1572 -14.1569 -14.1551 -14.1546 -14.1200 -14.1199 -14.1190 -14.1176
   -14.1149 -14.1133 -14.1054 -14.1046 -14.1043 -14.1040 -14.0978 -14.0976
   -14.0967 -14.0958 -14.0932 -14.0928 -14.0567 -14.0567 -14.0546 -14.0544
   -14.0543 -14.0539 -14.0518 -14.0516 -14.0383 -14.0371 -14.0364 -14.0354
   -14.0344 -14.0330 -14.0309 -14.0303 -14.0279 -14.0269 -14.0253 -14.0232
   -14.0220 -14.0203 -14.0191 -14.0191 -14.0187 -14.0184 -14.0179 -14.0179
   -14.0168 -14.0167 -14.0161 -14.0158 -14.0153 -14.0133 -14.0120 -14.0097
   -13.9963 -13.9948 -13.9943 -13.9934 -13.9929 -13.9928 -13.9911 -13.9903
   -13.9890 -13.9885 -13.9871 -13.9852 -13.9784 -13.9765 -13.9739 -13.9727
   -13.9678 -13.9666 -13.9611 -13.9602 -13.9597 -13.9590 -13.9587 -13.9585
   -13.9583 -13.9574 -13.9567 -13.9549 -13.9545 -13.9535 -13.9529 -13.9499
   -13.9498 -13.9496 -13.9476 -13.9467 -13.9465 -13.9457 -13.9453 -13.9451
   -13.9450 -13.9449 -13.9444 -13.9443 -13.9441 -13.9440 -13.9431 -13.9429
   -13.9427 -13.9426 -13.9424 -13.9421 -13.9419 -13.9405 -13.9403 -13.9397
   -13.9394 -13.9388 -13.9377 -13.9369 -13.9359 -13.9355 -13.9353 -13.9352
   -13.9325 -13.9306 -13.9233 -13.9213 -13.9206 -13.9195 -13.9177 -13.9167
   -13.9150 -13.9150 -13.9147 -13.9146 -13.9137 -13.9137 -13.9131 -13.9118
   -13.9115 -13.9114 -13.9109 -13.9096 -13.9089 -13.9085 -13.9080 -13.9067
   -13.9063 -13.9054 -13.9045 -13.9039 -13.9026 -13.9025 -13.9016 -13.9015
   -13.9007 -13.9005 -13.9003 -13.9001 -13.9001 -13.8997 -13.8995 -13.8993
   -13.8992 -13.8990 -13.8985 -13.8984 -13.8984 -13.8979 -13.8976 -13.8968
   -13.8965 -13.8964 -13.8962 -13.8959 -13.8957 -13.8953 -13.8947 -13.8941
   -13.8937 -13.8935 -13.8934 -13.8931 -13.8930 -13.8929 -13.8928 -13.8925
   -13.8923 -13.8922 -13.8920 -13.8919 -13.8918 -13.8916 -13.8910 -13.8909
   -13.8908 -13.8906 -13.8904 -13.8901 -13.8900 -13.8900 -13.8898 -13.8898
   -13.8892 -13.8886 -13.8883 -13.8881 -13.8881 -13.8879 -13.8878 -13.8876
   -13.8874 -13.8872 -13.8871 -13.8870 -13.8869 -13.8862 -13.8861 -13.8857
   -13.8856 -13.8856 -13.8853 -13.8846 -13.8842 -13.8839 -13.8838 -13.8835
   -13.8832 -13.8820 -13.8817 -13.8804 -13.8795 -13.8771  -9.9022  -9.8995
    -9.8966  -9.8940  -9.5488  -9.5462  -9.5433  -9.5407  -9.0291  -9.0280
    -9.0260  -9.0247  -9.0242  -9.0228  -9.0209  -9.0199  -8.7308  -8.7301
    -8.7281  -8.7268  -8.7263  -8.7249  -8.7230  -8.7223  -8.5880  -8.5880
    -8.3733  -8.3733  -8.3482  -8.3458  -8.3430  -8.3406  -8.0043  -8.0020
    -8.0011  -8.0000  -7.9999  -7.9989  -7.9979  -7.9958  -7.8815  -7.8814
    -7.8502  -7.8491  -7.8471  -7.8462  -7.7755  -7.7736  -7.7709  -7.7689
    -7.6517  -7.6501  -7.6491  -7.6476  -7.5147  -7.5146  -7.3710  -7.3707
    -7.3695  -7.3694  -7.2061  -7.2060  -7.0743  -7.0740  -7.0728  -7.0727
    -6.9113  -6.9090  -6.9077  -6.9069  -6.9061  -6.9053  -6.9040  -6.9017
    -6.7424  -6.7400  -6.7387  -6.7380  -6.7373  -6.7365  -6.7353  -6.7329
    -6.5747  -6.5742  -6.5392  -6.5372  -6.5347  -6.5330  -6.5250  -6.5225
    -6.5214  -6.5208  -6.5205  -6.5202  -6.5186  -6.5163  -6.5141  -6.5132
    -6.5109  -6.5090  -6.4742  -6.4717  -6.4712  -6.4708  -6.4685  -6.4677
    -6.4671  -6.4635   0.6182   0.6183   0.8816   0.8846   0.8874   0.8900
     0.8988   0.9016   0.9043   0.9076   1.0128   1.0142   1.0163   1.0178
     1.3329   1.3348   1.3360   1.3366   1.3367   1.3373   1.3384   1.3404
     1.9809   1.9825   1.9837   1.9853   2.2636   2.2638   2.3354   2.3374
     2.3382   2.3396   2.3397   2.3412   2.3420   2.3442   2.5007   2.5028
     2.5038   2.5053   2.5055   2.5070   2.5081   2.5103   3.1435   3.1436
     3.8609   3.8615   3.8623   3.8630   4.0340   4.0353   4.0363   4.0372
     4.0696   4.0707   4.0725   4.0726   4.0728   4.0730   4.0745   4.0754
     4.0914   4.0917   4.2666   4.2668   4.2683   4.2685   4.5638   4.5647
     4.5656   4.5664   4.5665   4.5673   4.5683   4.5691   4.7113   4.7115
     4.7122   4.7125   4.7836   4.7845   4.7859   4.7865   4.8012   4.8024
     4.8047   4.8062   5.0690   5.0694   5.0716   5.0717   5.0722   5.0723
     5.0744   5.0748   5.3749   5.3760   5.3764   5.3776   5.4959   5.4962
     5.4980   5.4987   5.4988   5.4995   5.5013   5.5016   5.6748   5.6748
     5.7144   5.7145   5.7680   5.7690   5.7695   5.7706   5.8152   5.8167
     5.8173   5.8188   5.8703   5.8723   5.8743   5.8764   6.0358   6.0365
     6.0373   6.0379   6.2903   6.2903   6.3064   6.3068   6.3081   6.3086
     6.3726   6.3748   6.3760   6.3765   6.3768   6.3770   6.3781   6.3808
     6.3981   6.3990   6.4013   6.4023   6.6732   6.6753   6.6778   6.6799
     6.7381   6.7382   6.7718   6.7719   6.8417   6.8420   6.8432   6.8435
     6.8852   6.8873   6.8876   6.8897   6.9160   6.9161   6.9548   6.9549
     7.1676   7.1686   7.1688   7.1704   7.1705   7.1721   7.1724   7.1734
     7.2554   7.2555   7.4609   7.4618   7.4639   7.4647   7.7160   7.7176
     7.7188   7.7198   7.7203   7.7211   7.7225   7.7239   7.8378   7.8390
     7.8413   7.8427   7.9648   7.9650   7.9661   7.9663   7.9955   7.9959
     7.9976   7.9979   8.0363   8.0367   8.0378   8.0388   8.0391   8.0400
     8.0413   8.0416   8.1077   8.1079   8.1086   8.1098   8.1100   8.1110
     8.1120   8.1123   8.1434   8.1445   8.1447   8.1459   8.2132   8.2147
     8.2149   8.2164   8.3020   8.3039   8.3067   8.3087   8.5058   8.5076
     8.5094   8.5095   8.5099   8.5100   8.5117   8.5137   8.5152   8.5169
     8.5178   8.5179   8.5193   8.5195   8.5204   8.5221   8.7239   8.7245
     8.7254   8.7259   8.7982   8.8003   8.8004   8.8025   8.9290   8.9295
     8.9313   8.9321   8.9323   8.9332   8.9348   8.9353   9.0026   9.0026
     9.0525   9.0540   9.0558   9.0573   9.0857   9.0866   9.0873   9.0880
     9.1095   9.1096   9.2019   9.2020   9.2039   9.2043   9.2426   9.2436
     9.2440   9.2451   9.2561   9.2566   9.2585   9.2592   9.2597   9.2607
     9.2628   9.2629   9.2934   9.2935   9.3770   9.3771   9.4436   9.4441
     9.4467   9.4469   9.5137   9.5146   9.5160   9.5172   9.5178   9.5191
     9.5205   9.5215   9.5753   9.5765   9.5787   9.5790   9.5849   9.5853
     9.5868   9.5878   9.5882   9.5900   9.5911   9.5922   9.9712   9.9733
     9.9761   9.9785  10.1609  10.1630  10.1659  10.1682

          k = 0.0000-0.3248 0.0000 ( 83134 PWs)   bands (ev):

   -14.2845 -14.2800 -14.2506 -14.2498 -14.2460 -14.2455 -14.2277 -14.2271
   -14.2270 -14.2267 -14.2264 -14.2259 -14.2253 -14.2253 -14.2242 -14.2242
   -14.2240 -14.2237 -14.2125 -14.2124 -14.2119 -14.2117 -14.2036 -14.2034
   -14.2025 -14.2018 -14.2003 -14.1997 -14.1993 -14.1988 -14.1979 -14.1978
   -14.1975 -14.1974 -14.1971 -14.1970 -14.1953 -14.1951 -14.1948 -14.1946
   -14.1937 -14.1936 -14.1928 -14.1916 -14.1915 -14.1904 -14.1879 -14.1866
   -14.1723 -14.1716 -14.1680 -14.1671 -14.1331 -14.1288 -14.0864 -14.0860
   -14.0834 -14.0832 -14.0591 -14.0580 -14.0576 -14.0576 -14.0546 -14.0546
   -14.0546 -14.0545 -14.0470 -14.0469 -14.0468 -14.0467 -14.0466 -14.0464
   -14.0461 -14.0451 -14.0112 -14.0109 -14.0108 -14.0108 -13.9977 -13.9972
   -13.9970 -13.9970 -13.9945 -13.9940 -13.9939 -13.9936 -13.9928 -13.9926
   -13.9903 -13.9900 -13.9898 -13.9892 -13.9888 -13.9881 -13.9879 -13.9874
   -13.9871 -13.9863 -13.9858 -13.9857 -13.9855 -13.9854 -13.9850 -13.9844
   -13.9840 -13.9833 -13.9833 -13.9824 -13.9822 -13.9808 -13.9804 -13.9800
   -13.9788 -13.9752 -13.9709 -13.9709 -13.9705 -13.9702 -13.9684 -13.9680
   -13.9586 -13.9582 -13.9547 -13.9536 -13.9450 -13.9422 -13.9413 -13.9406
   -13.9401 -13.9398 -13.9395 -13.9385 -13.9377 -13.9377 -13.9375 -13.9375
   -13.9360 -13.9360 -13.9358 -13.9358 -13.9357 -13.9356 -13.9356 -13.9355
   -13.9355 -13.9354 -13.9352 -13.9350 -13.9350 -13.9340 -13.9339 -13.9338
   -13.9336 -13.9330 -13.9326 -13.9319 -13.9316 -13.9309 -13.9309 -13.9295
   -13.9291 -13.9267 -13.9261 -13.9238 -13.9233 -13.9229 -13.9216 -13.9214
   -13.9207 -13.9205 -13.9199 -13.9199 -13.9193 -13.9192 -13.9189 -13.9188
   -13.9188 -13.9187 -13.9177 -13.9176 -13.9175 -13.9172 -13.9170 -13.9157
   -13.9157 -13.9152 -13.9151 -13.9137 -13.9137 -13.9131 -13.9130 -13.9130
   -13.9123 -13.9120 -13.9115 -13.9111 -13.9099 -13.9095 -13.9090 -13.9087
   -13.9081 -13.9060 -13.9045 -13.9045 -13.9042 -13.9037 -13.9029 -13.9021
   -13.9014 -13.9006 -13.8993 -13.8988 -13.8988 -13.8986 -13.8981 -13.8967
   -13.8963 -13.8960 -13.8953 -13.8952 -13.8952 -13.8946 -13.8943 -13.8943
   -13.8942 -13.8934 -13.8932 -13.8927 -13.8921 -13.8920 -13.8915 -13.8914
   -13.8914 -13.8911 -13.8908 -13.8907 -13.8906 -13.8905 -13.8904 -13.8895
   -13.8893 -13.8891 -13.8891 -13.8888 -13.8886 -13.8881 -13.8880 -13.8879
   -13.8879 -13.8878 -13.8878 -13.8877 -13.8871 -13.8871 -13.8860 -13.8859
   -13.8858 -13.8856 -13.8854 -13.8852 -13.8846 -13.8846 -13.8841 -13.8838
   -13.8829 -13.8825 -13.8813 -13.8802 -13.8789 -13.8778 -10.1411 -10.1355
    -9.6741  -9.6735  -9.6686  -9.6681  -9.2379  -9.2347  -9.0937  -9.0927
    -9.0883  -9.0874  -8.8669  -8.8654  -8.8642  -8.8627  -8.7300  -8.7287
    -8.7282  -8.7277  -8.7242  -8.7237  -8.7232  -8.7219  -8.4864  -8.4848
    -8.4817  -8.4800  -8.3900  -8.3894  -8.3877  -8.3871  -8.1816  -8.1803
    -8.1795  -8.1793  -8.1790  -8.1789  -8.1781  -8.1768  -7.8834  -7.8817
    -7.8808  -7.8806  -7.8781  -7.8779  -7.8770  -7.8752  -7.8425  -7.8380
    -7.4123  -7.4108  -7.4107  -7.4093  -7.3742  -7.3732  -7.3716  -7.3709
    -7.3458  -7.3404  -7.3182  -7.3179  -7.3140  -7.3135  -6.8064  -6.8037
    -6.7422  -6.7404  -6.7396  -6.7394  -6.7391  -6.7389  -6.7381  -6.7374
    -6.6872  -6.6857  -6.6847  -6.6846  -6.6833  -6.6831  -6.6821  -6.6811
    -6.6747  -6.6737  -6.6704  -6.6689  -6.6491  -6.6484  -6.6439  -6.6431
    -6.5917  -6.5876  -6.5834  -6.5817  -6.5813  -6.5796  -6.5098  -6.5095
    -6.5079  -6.5077  -6.5029  -6.5016  -6.5015  -6.5013  -6.4994  -6.4993
    -6.4981  -6.4976   0.6576   0.6633   0.7065   0.7070   0.7118   0.7124
     1.2545   1.2546   1.2556   1.2558   1.2586   1.2589   1.2597   1.2598
     1.4053   1.4064   1.4069   1.4070   1.4070   1.4071   1.4078   1.4087
     1.5512   1.5526   1.5567   1.5582   2.1258   2.1270   2.1276   2.1287
     2.2543   2.2570   2.4254   2.4269   2.4272   2.4275   2.4287   2.4291
     2.4294   2.4308   3.0939   3.0952   3.0963   3.0975   3.2167   3.2178
     3.2201   3.2212   3.5652   3.5669   3.5700   3.5718   3.6744   3.6747
     3.6755   3.6757   3.9009   3.9013   3.9024   3.9027   3.9032   3.9034
     3.9046   3.9050   4.4024   4.4039   4.4059   4.4073   4.5688   4.5726
     4.8116   4.8116   4.8124   4.8127   4.8128   4.8129   4.8133   4.8136
     4.8602   4.8612   4.8621   4.8622   4.8624   4.8628   4.8636   4.8647
     5.2079   5.2082   5.2096   5.2099   5.2523   5.2530   5.2541   5.2542
     5.2552   5.2552   5.2564   5.2572   5.3798   5.3840   5.6202   5.6203
     5.6214   5.6215   5.6219   5.6220   5.6223   5.6225   5.6226   5.6228
     5.6236   5.6238   5.6389   5.6402   5.6408   5.6409   5.6427   5.6429
     5.6447   5.6464   5.6502   5.6514   5.6547   5.6564   5.7855   5.7868
     5.7873   5.7874   5.7890   5.7892   5.7897   5.7910   5.8551   5.8606
     5.9301   5.9310   5.9316   5.9325   6.2508   6.2509   6.2561   6.2562
     6.4377   6.4420   6.6476   6.6504   6.7091   6.7095   6.7856   6.7868
     6.7875   6.7888   6.9263   6.9280   6.9286   6.9302   7.1833   7.1855
     7.1876   7.1895   7.1898   7.1903   7.1946   7.1954   7.3342   7.3347
     7.3362   7.3366   7.3565   7.3570   7.3580   7.3581   7.3592   7.3593
     7.3603   7.3609   7.4227   7.4237   7.4273   7.4283   7.5530   7.5564
     7.5621   7.5623   7.5656   7.5659   7.6914   7.6928   7.6936   7.6937
     7.6940   7.6942   7.6950   7.6964   7.7605   7.7607   7.7609   7.7617
     8.0691   8.0695   8.0705   8.0708   8.1296   8.1297   8.1299   8.1300
     8.2127   8.2132   8.2137   8.2143   8.2167   8.2171   8.2177   8.2179
     8.2201   8.2212   8.2242   8.2257   8.4164   8.4170   8.4172   8.4175
     8.4180   8.4183   8.4185   8.4191   8.4954   8.4967   8.4977   8.4983
     8.5227   8.5236   8.5257   8.5270   8.5429   8.5483   8.6486   8.6493
     8.6893   8.6918   8.7115   8.7129   8.7153   8.7169   8.7354   8.7355
     8.7357   8.7359   8.9718   8.9722   8.9732   8.9735   8.9740   8.9745
     8.9748   8.9749   8.9823   8.9827   8.9831   8.9835   8.9841   8.9845
     8.9857   8.9858   9.0321   9.0357   9.0804   9.0807   9.0859   9.0862
     9.1699   9.1709   9.1744   9.1754   9.1866   9.1870   9.1882   9.1886
     9.1887   9.1892   9.1905   9.1910   9.2738   9.2748   9.2759   9.2769
     9.3395   9.3396   9.3415   9.3415   9.4202   9.4204   9.4218   9.4220
     9.4225   9.4227   9.4242   9.4242   9.5099   9.5109   9.5150   9.5158
     9.5182   9.5198   9.5214   9.5230   9.5651   9.5654   9.5664   9.5671
     9.5701   9.5709   9.5720   9.5725   9.6915   9.6944   9.7002   9.7054
     9.8143   9.8146   9.8191   9.8195  10.3143  10.3196

          k =-0.3333-0.3248 0.0000 ( 83068 PWs)   bands (ev):

   -14.2758 -14.2751 -14.2743 -14.2732 -14.2722 -14.2718 -14.2608 -14.2563
   -14.2516 -14.2506 -14.2504 -14.2496 -14.2463 -14.2460 -14.2459 -14.2452
   -14.2431 -14.2425 -14.2421 -14.2383 -14.2249 -14.2241 -14.2203 -14.2198
   -14.1982 -14.1943 -14.1865 -14.1863 -14.1859 -14.1857 -14.1837 -14.1834
   -14.1825 -14.1820 -14.1785 -14.1782 -14.1653 -14.1649 -14.1468 -14.1462
   -14.1426 -14.1421 -14.1414 -14.1414 -14.1410 -14.1409 -14.1314 -14.1311
   -14.1274 -14.1273 -14.1123 -14.1090 -14.1071 -14.1029 -14.0892 -14.0855
   -14.0805 -14.0796 -14.0772 -14.0772 -14.0763 -14.0759 -14.0752 -14.0739
   -14.0481 -14.0478 -14.0370 -14.0367 -14.0345 -14.0335 -14.0332 -14.0306
   -14.0300 -14.0267 -14.0261 -14.0241 -14.0232 -14.0231 -14.0214 -14.0212
   -14.0206 -14.0203 -14.0202 -14.0200 -14.0194 -14.0190 -14.0184 -14.0180
   -14.0177 -14.0175 -14.0174 -14.0171 -14.0171 -14.0166 -14.0166 -14.0159
   -14.0149 -14.0142 -14.0126 -14.0104 -14.0006 -13.9968 -13.9851 -13.9850
   -13.9825 -13.9821 -13.9805 -13.9795 -13.9795 -13.9753 -13.9737 -13.9723
   -13.9690 -13.9690 -13.9638 -13.9636 -13.9633 -13.9626 -13.9602 -13.9601
   -13.9585 -13.9555 -13.9540 -13.9535 -13.9518 -13.9511 -13.9510 -13.9498
   -13.9495 -13.9494 -13.9485 -13.9482 -13.9481 -13.9473 -13.9470 -13.9465
   -13.9459 -13.9457 -13.9451 -13.9446 -13.9442 -13.9440 -13.9434 -13.9433
   -13.9432 -13.9430 -13.9423 -13.9416 -13.9414 -13.9408 -13.9405 -13.9383
   -13.9378 -13.9374 -13.9371 -13.9349 -13.9343 -13.9342 -13.9330 -13.9327
   -13.9307 -13.9291 -13.9230 -13.9210 -13.9196 -13.9179 -13.9172 -13.9170
   -13.9168 -13.9164 -13.9158 -13.9152 -13.9151 -13.9150 -13.9145 -13.9134
   -13.9130 -13.9114 -13.9114 -13.9102 -13.9101 -13.9098 -13.9090 -13.9085
   -13.9077 -13.9070 -13.9058 -13.9057 -13.9056 -13.9048 -13.9040 -13.9034
   -13.9028 -13.9023 -13.9019 -13.9018 -13.9008 -13.9004 -13.9001 -13.8999
   -13.8997 -13.8994 -13.8994 -13.8990 -13.8984 -13.8981 -13.8975 -13.8971
   -13.8966 -13.8964 -13.8956 -13.8951 -13.8948 -13.8944 -13.8942 -13.8939
   -13.8939 -13.8939 -13.8934 -13.8931 -13.8930 -13.8928 -13.8927 -13.8926
   -13.8925 -13.8921 -13.8917 -13.8916 -13.8911 -13.8910 -13.8908 -13.8905
   -13.8902 -13.8900 -13.8900 -13.8899 -13.8898 -13.8896 -13.8895 -13.8893
   -13.8885 -13.8883 -13.8882 -13.8881 -13.8879 -13.8878 -13.8876 -13.8872
   -13.8870 -13.8870 -13.8868 -13.8867 -13.8867 -13.8866 -13.8861 -13.8860
   -13.8858 -13.8850 -13.8847 -13.8847 -13.8845 -13.8843 -13.8839 -13.8829
   -13.8828 -13.8823 -13.8816 -13.8797 -13.8793 -13.8772 -10.0190 -10.0134
    -9.6593  -9.6537  -9.5577  -9.5572  -9.5523  -9.5518  -9.2244  -9.2239
    -9.2189  -9.2186  -9.1258  -9.1226  -8.8145  -8.8116  -8.7731  -8.7717
    -8.7706  -8.7691  -8.5168  -8.5155  -8.5145  -8.5132  -8.4040  -8.3988
    -8.3912  -8.3895  -8.3865  -8.3848  -8.1948  -8.1940  -8.1896  -8.1890
    -8.1454  -8.1437  -8.1409  -8.1391  -8.0373  -8.0362  -7.9236  -7.9228
    -7.9221  -7.9213  -7.8488  -7.8477  -7.8442  -7.8428  -7.7575  -7.7530
    -7.7452  -7.7411  -7.5166  -7.5139  -7.2778  -7.2768  -7.2752  -7.2746
    -7.2401  -7.2348  -7.2208  -7.2204  -7.2167  -7.2161  -7.0287  -7.0277
    -7.0263  -7.0256  -6.9710  -6.9703  -6.9675  -6.9668  -6.9664  -6.9618
    -6.7480  -6.7453  -6.6341  -6.6328  -6.6295  -6.6283  -6.6133  -6.6109
    -6.5928  -6.5906  -6.5865  -6.5828  -6.5566  -6.5549  -6.5543  -6.5537
    -6.5490  -6.5482  -6.5452  -6.5437  -6.5156  -6.5143  -6.5107  -6.5093
    -6.5062  -6.5052  -6.4978  -6.4971  -6.4933  -6.4919  -6.4625  -6.4579
    -6.4464  -6.4411   0.6486   0.6542   0.6584   0.6641   0.8181   0.8184
     0.8190   0.8193   1.0493   1.0508   1.0514   1.0529   1.0712   1.0761
     1.5105   1.5117   1.5157   1.5168   1.5662   1.5675   1.5716   1.5730
     1.7333   1.7339   1.7782   1.7796   1.7800   1.7816   1.9150   1.9192
     2.2755   2.2764   2.2772   2.2780   2.3151   2.3178   2.3942   2.3967
     2.9128   2.9139   2.9149   2.9161   3.1315   3.1327   3.1336   3.1348
     3.4962   3.4982   3.5002   3.5022   3.6174   3.6179   3.8321   3.8333
     3.8334   3.8346   4.1899   4.1902   4.1906   4.1912   4.2258   4.2269
     4.4523   4.4534   4.4543   4.4555   4.5333   4.5355   4.5868   4.5895
     4.5978   4.5985   4.6019   4.6026   4.6756   4.6766   4.6771   4.6775
     4.6786   4.6810   4.7882   4.7883   4.8174   4.8181   4.9779   4.9790
     4.9797   4.9807   5.0296   5.0297   5.0820   5.0822   5.1142   5.1147
     5.1317   5.1348   5.2431   5.2440   5.2756   5.2766   5.2797   5.2807
     5.3328   5.3334   5.3343   5.3349   5.4310   5.4321   5.6278   5.6279
     5.6282   5.6283   5.6922   5.6935   5.6954   5.6964   5.7841   5.7847
     5.7857   5.7863   5.9517   5.9525   5.9562   5.9571   5.9971   5.9986
     6.0695   6.0701   6.0708   6.0714   6.2120   6.2134   6.2156   6.2170
     6.3706   6.3708   6.4663   6.4674   6.4710   6.4721   6.5041   6.5062
     6.5366   6.5403   6.5428   6.5444   6.5457   6.5471   6.5550   6.5572
     6.5710   6.5717   6.7663   6.7679   6.8791   6.8804   6.8812   6.8825
     7.1015   7.1027   7.1061   7.1073   7.1289   7.1302   7.1318   7.1331
     7.2721   7.2726   7.3077   7.3100   7.3984   7.4012   7.4081   7.4093
     7.4102   7.4106   7.4123   7.4155   7.4414   7.4425   7.4436   7.4447
     7.5284   7.5288   7.5309   7.5311   7.5473   7.5482   7.6594   7.6625
     7.7499   7.7506   7.7537   7.7544   7.8339   7.8355   7.8881   7.8888
     7.8906   7.8912   7.9022   7.9023   8.0038   8.0040   8.0075   8.0077
     8.0248   8.0300   8.0596   8.0622   8.1304   8.1349   8.1490   8.1500
     8.1503   8.1514   8.2186   8.2198   8.2205   8.2216   8.2791   8.2798
     8.3481   8.3488   8.3788   8.3794   8.3808   8.3815   8.4459   8.4462
     8.4483   8.4486   8.4640   8.4651   8.5489   8.5497   8.5526   8.5535
     8.7048   8.7066   8.7073   8.7075   8.7103   8.7105   8.7132   8.7152
     8.7486   8.7500   8.7513   8.7556   8.8653   8.8664   8.8683   8.8692
     8.8694   8.8707   8.8715   8.8728   8.9253   8.9269   8.9270   8.9285
     8.9420   8.9426   9.0111   9.0114   9.0126   9.0131   9.0421   9.0430
     9.0514   9.0529   9.0534   9.0549   9.2333   9.2347   9.2378   9.2391
     9.2421   9.2427   9.3146   9.3183   9.3443   9.3449   9.3461   9.3466
     9.3754   9.3780   9.3786   9.3795   9.3801   9.3832   9.3960   9.3970
     9.3985   9.3993   9.4511   9.4566   9.4769   9.4793   9.4848   9.4854
     9.4869   9.4882   9.4981   9.4996   9.5012   9.5028   9.6300   9.6327
     9.6555   9.6611   9.8228   9.8235   9.8277   9.8284   9.8788   9.8794
     9.8834   9.8840   9.9943   9.9994  10.2529  10.2581

     highest occupied level (ev):    10.4932

!    total energy              =  -13225.90718148 Ry
     estimated scf accuracy    <          8.0E-09 Ry

     The total energy is the sum of the following terms:
     one-electron contribution =   -4400.32821588 Ry
     hartree contribution      =    3316.27521026 Ry
     xc contribution           =   -3278.83817829 Ry
     ewald contribution        =   -8863.01599757 Ry

     convergence has been achieved in  12 iterations

     Forces acting on atoms (cartesian axes, Ry/au):

     atom    1 type  1   force =     0.00102120    0.00043212    0.00070469
     atom    2 type  1   force =     0.00003998    0.00000301    0.00012668
     atom    3 type  1   force =    -0.00094141    0.00043202    0.00070446
     atom    4 type  1   force =     0.00004249    0.00025461   -0.00005041
     atom    5 type  1   force =     0.00004019    0.00019351   -0.00001646
     atom    6 type  1   force =     0.00003830    0.00025482   -0.00005059
     atom    7 type  1   force =    -0.00022532    0.00047644   -0.00070686
     atom    8 type  1   force =     0.00003994    0.00004857   -0.00013242
     atom    9 type  1   force =     0.00030503    0.00047610   -0.00070661
     atom   10 type  1   force =     0.00004268   -0.00006505    0.00006399
     atom   11 type  1   force =     0.00004026   -0.00003904    0.00003019
     atom   12 type  1   force =     0.00003800   -0.00006494    0.00006416
     atom   13 type  1   force =     0.00004112    0.00013317    0.00001253
     atom   14 type  1   force =     0.00004057    0.00012322    0.00001302
     atom   15 type  1   force =     0.00004041    0.00013329    0.00001288
     atom   16 type  1   force =     0.00003829   -0.00003382    0.00007178
     atom   17 type  1   force =     0.00004017   -0.00000809    0.00003773
     atom   18 type  1   force =     0.00004254   -0.00003369    0.00007197
     atom   19 type  1   force =     0.00030945    0.00042662   -0.00066377
     atom   20 type  1   force =     0.00003999   -0.00000021   -0.00008658
     atom   21 type  1   force =    -0.00022961    0.00042642   -0.00066352
     atom   22 type  1   force =     0.00003837    0.00026240   -0.00002134
     atom   23 type  1   force =     0.00004041    0.00020073    0.00001289
     atom   24 type  1   force =     0.00004227    0.00026238   -0.00002136
     atom   25 type  1   force =    -0.00093838    0.00047304    0.00074136
     atom   26 type  1   force =     0.00004009    0.00004666    0.00016746
     atom   27 type  1   force =     0.00101830    0.00047275    0.00074124
     atom   28 type  1   force =    -0.00005640   -0.00760743    0.00063493
     atom   29 type  1   force =    -0.00005850   -0.00153651    0.00076315
     atom   30 type  1   force =    -0.00005371   -0.00153625    0.00076298
     atom   31 type  1   force =    -0.00005673    0.00049576    0.00002776
     atom   32 type  1   force =     0.00008168    0.00022879   -0.00001046
     atom   33 type  1   force =    -0.00019460    0.00022872   -0.00001041
     atom   34 type  1   force =    -0.00005675    0.00055024    0.00003179
     atom   35 type  1   force =    -0.00019301    0.00028625   -0.00000491
     atom   36 type  1   force =     0.00008002    0.00028619   -0.00000486
     atom   37 type  1   force =    -0.00005658   -0.00037302   -0.00000450
     atom   38 type  1   force =     0.00002368   -0.00026943   -0.00004210
     atom   39 type  1   force =    -0.00013686   -0.00026947   -0.00004219
     atom   40 type  1   force =    -0.00005678    0.00023847    0.00021725
     atom   41 type  1   force =    -0.00002249    0.00009257    0.00006628
     atom   42 type  1   force =    -0.00009162    0.00009232    0.00006633
     atom   43 type  1   force =    -0.00005713    0.00014323   -0.00007325
     atom   44 type  1   force =    -0.00007238    0.00013465   -0.00005275
     atom   45 type  1   force =    -0.00004149    0.00013495   -0.00005295
     atom   46 type  1   force =    -0.00005654   -0.00036815    0.00005242
     atom   47 type  1   force =    -0.00013682   -0.00026425    0.00001516
     atom   48 type  1   force =     0.00002360   -0.00026417    0.00001518
     atom   49 type  1   force =    -0.00005697    0.00009471   -0.00002660
     atom   50 type  1   force =    -0.00004064    0.00008597   -0.00000604
     atom   51 type  1   force =    -0.00007340    0.00008599   -0.00000600
     atom   52 type  1   force =    -0.00005718    0.00027843    0.00025532
     atom   53 type  1   force =    -0.00009106    0.00013164    0.00010326
     atom   54 type  1   force =    -0.00002282    0.00013152    0.00010349
     atom   55 type  2   force =    -0.00000564   -0.00142328   -0.00143958
     atom   56 type  2   force =    -0.00005334   -0.00099745   -0.00102714
     atom   57 type  2   force =     0.00004233   -0.00099745   -0.00102704
     atom   58 type  2   force =    -0.00000841   -0.00100271   -0.00097990
     atom   59 type  2   force =    -0.00000384   -0.00099186   -0.00098342
     atom   60 type  2   force =    -0.00001300   -0.00099183   -0.00098338
     atom   61 type  2   force =    -0.00000623   -0.00050083   -0.00067490
     atom   62 type  2   force =     0.00009113   -0.00056300   -0.00075132
     atom   63 type  2   force =    -0.00010359   -0.00056299   -0.00075134
     atom   64 type  2   force =    -0.00000843   -0.00094839   -0.00089802
     atom   65 type  2   force =    -0.00001167   -0.00095161   -0.00089998
     atom   66 type  2   force =    -0.00000520   -0.00095153   -0.00090004
     atom   67 type  2   force =    -0.00001119   -0.00095976   -0.00093154
     atom   68 type  2   force =    -0.00000605   -0.00095470   -0.00092817
     atom   69 type  2   force =    -0.00001618   -0.00095463   -0.00092802
     atom   70 type  2   force =    -0.00000901   -0.00062265   -0.00093664
     atom   71 type  2   force =     0.00000521   -0.00062636   -0.00092673
     atom   72 type  2   force =    -0.00002326   -0.00062642   -0.00092669
     atom   73 type  2   force =    -0.00000620   -0.00115752   -0.00048252
     atom   74 type  2   force =    -0.00010563   -0.00101524   -0.00059314
     atom   75 type  2   force =     0.00009331   -0.00101526   -0.00059310
     atom   76 type  2   force =    -0.00000889   -0.00105773   -0.00070724
     atom   77 type  2   force =     0.00000992   -0.00103582   -0.00070134
     atom   78 type  2   force =    -0.00002801   -0.00103587   -0.00070133
     atom   79 type  2   force =    -0.00000691    0.00028976   -0.00017777
     atom   80 type  2   force =     0.00017080   -0.00045004   -0.00067532
     atom   81 type  2   force =    -0.00018486   -0.00045019   -0.00067531
     atom   82 type  2   force =    -0.00014091    0.00043752   -0.00072106
     atom   83 type  2   force =     0.00001563    0.00065366   -0.00080480
     atom   84 type  2   force =     0.00017211    0.00043752   -0.00072095
     atom   85 type  2   force =     0.00003627    0.00082387   -0.00074622
     atom   86 type  2   force =     0.00001514    0.00088635   -0.00079354
     atom   87 type  2   force =    -0.00000574    0.00082373   -0.00074623
     atom   88 type  2   force =    -0.00043703    0.00209528   -0.00156417
     atom   89 type  2   force =     0.00001299    0.00097065   -0.00088006
     atom   90 type  2   force =     0.00046162    0.00209454   -0.00156333
     atom   91 type  2   force =    -0.00002050    0.00070273   -0.00108714
     atom   92 type  2   force =     0.00001754    0.00069773   -0.00104958
     atom   93 type  2   force =     0.00005557    0.00070268   -0.00108716
     atom   94 type  2   force =     0.00001746    0.00093599   -0.00101384
     atom   95 type  2   force =     0.00001748    0.00094446   -0.00101956
     atom   96 type  2   force =     0.00001719    0.00093600   -0.00101381
     atom   97 type  2   force =     0.00002981    0.00091524   -0.00108508
     atom   98 type  2   force =     0.00001500    0.00087606   -0.00104979
     atom   99 type  2   force =     0.00000029    0.00091521   -0.00108519
     atom  100 type  2   force =    -0.00000601    0.00062385   -0.00067960
     atom  101 type  2   force =     0.00001826    0.00063968   -0.00070817
     atom  102 type  2   force =     0.00004255    0.00062382   -0.00067957
     atom  103 type  2   force =     0.00005775    0.00088068   -0.00077429
     atom  104 type  2   force =     0.00001784    0.00092193   -0.00077584
     atom  105 type  2   force =    -0.00002184    0.00088082   -0.00077435
     atom  106 type  2   force =     0.00015919    0.00104602   -0.00103777
     atom  107 type  2   force =     0.00001570    0.00090769   -0.00085527
     atom  108 type  2   force =    -0.00012762    0.00104610   -0.00103791
     atom  109 type  2   force =    -0.00000673    0.00162420    0.00116413
     atom  110 type  2   force =    -0.00018507    0.00083598    0.00061054
     atom  111 type  2   force =     0.00017172    0.00083600    0.00061062
     atom  112 type  2   force =    -0.00000897    0.00075320    0.00061312
     atom  113 type  2   force =    -0.00002858    0.00077542    0.00061917
     atom  114 type  2   force =     0.00001060    0.00077549    0.00061913
     atom  115 type  2   force =    -0.00000626    0.00078960    0.00083412
     atom  116 type  2   force =     0.00009299    0.00092945    0.00072504
     atom  117 type  2   force =    -0.00010550    0.00092949    0.00072504
     atom  118 type  2   force =    -0.00000902    0.00069779    0.00087392
     atom  119 type  2   force =    -0.00002326    0.00069386    0.00088403
     atom  120 type  2   force =     0.00000535    0.00069391    0.00088408
     atom  121 type  2   force =    -0.00001132    0.00083508    0.00086247
     atom  122 type  2   force =    -0.00001649    0.00083982    0.00086600
     atom  123 type  2   force =    -0.00000603    0.00083977    0.00086613
     atom  124 type  2   force =    -0.00000869    0.00101732    0.00091638
     atom  125 type  2   force =    -0.00000536    0.00101429    0.00091447
     atom  126 type  2   force =    -0.00001206    0.00101411    0.00091447
     atom  127 type  2   force =    -0.00000616    0.00081955    0.00127149
     atom  128 type  2   force =    -0.00010282    0.00075665    0.00119323
     atom  129 type  2   force =     0.00009028    0.00075659    0.00119322
     atom  130 type  2   force =    -0.00000869    0.00081210    0.00098686
     atom  131 type  2   force =    -0.00001356    0.00082314    0.00098300
     atom  132 type  2   force =    -0.00000384    0.00082314    0.00098299
     atom  133 type  2   force =    -0.00000589    0.00057454    0.00055866
     atom  134 type  2   force =     0.00004222    0.00100317    0.00097398
     atom  135 type  2   force =    -0.00005412    0.00100303    0.00097402
     atom  136 type  2   force =    -0.00012806   -0.00054027    0.00044443
     atom  137 type  2   force =     0.00001565   -0.00067831    0.00062700
     atom  138 type  2   force =     0.00015928   -0.00054027    0.00044439
     atom  139 type  2   force =    -0.00002225   -0.00112242    0.00071462
     atom  140 type  2   force =     0.00001752   -0.00108151    0.00071317
     atom  141 type  2   force =     0.00005738   -0.00112245    0.00071462
     atom  142 type  2   force =     0.00004207   -0.00085481    0.00079795
     atom  143 type  2   force =     0.00001829   -0.00083899    0.00076979
     atom  144 type  2   force =    -0.00000559   -0.00085477    0.00079798
     atom  145 type  2   force =     0.00000039   -0.00072644    0.00095776
     atom  146 type  2   force =     0.00001527   -0.00076552    0.00099277
     atom  147 type  2   force =     0.00003009   -0.00072638    0.00095767
     atom  148 type  2   force =     0.00001709   -0.00109999    0.00102232
     atom  149 type  2   force =     0.00001737   -0.00109143    0.00101646
     atom  150 type  2   force =     0.00001770   -0.00110000    0.00102216
     atom  151 type  2   force =     0.00005650   -0.00078694    0.00091722
     atom  152 type  2   force =     0.00001799   -0.00079200    0.00095511
     atom  153 type  2   force =    -0.00002077   -0.00078694    0.00091724
     atom  154 type  2   force =     0.00049034    0.00050235    0.00002007
     atom  155 type  2   force =     0.00001286   -0.00063307    0.00072375
     atom  156 type  2   force =    -0.00046318    0.00050172    0.00002092
     atom  157 type  2   force =    -0.00000617   -0.00121851    0.00089497
     atom  158 type  2   force =     0.00001506   -0.00115553    0.00084807
     atom  159 type  2   force =     0.00003625   -0.00121858    0.00089516
     atom  160 type  2   force =     0.00017130   -0.00104480    0.00086596
     atom  161 type  2   force =     0.00001573   -0.00082925    0.00078177
     atom  162 type  2   force =    -0.00013967   -0.00104483    0.00086611

     Total force =     0.015890     Total SCF correction =     0.000219
 
     init_run     :     23.65s CPU     31.85s WALL (       1 calls)
     electrons    :    905.83s CPU   1213.03s WALL (       1 calls)
     forces       :     20.11s CPU     32.05s WALL (       1 calls)

     Called by init_run:
     wfcinit      :     23.24s CPU     31.34s WALL (       1 calls)
     potinit      :      0.09s CPU      0.11s WALL (       1 calls)
     hinit0       :      0.14s CPU      0.19s WALL (       1 calls)

     Called by electrons:
     c_bands      :    868.18s CPU   1170.57s WALL (      12 calls)
     sum_band     :     37.18s CPU     41.48s WALL (      12 calls)
     v_of_rho     :      0.38s CPU      0.77s WALL (      13 calls)
     mix_rho      :      0.09s CPU      0.21s WALL (      12 calls)

     Called by c_bands:
     init_us_2    :      7.08s CPU      7.19s WALL (     208 calls)
     cegterg      :    843.06s CPU   1144.73s WALL (      96 calls)

     Called by *egterg:
     cdiaghg      :     62.91s CPU    116.46s WALL (     497 calls)
     h_psi        :    429.47s CPU    472.41s WALL (     505 calls)
     g_psi        :      1.56s CPU      1.60s WALL (     401 calls)

     Called by h_psi:
     h_psi:calbec :    134.77s CPU    146.84s WALL (     505 calls)
     vloc_psi     :    180.31s CPU    207.97s WALL (     505 calls)
     add_vuspsi   :    111.29s CPU    114.10s WALL (     505 calls)

     General routines
     calbec       :    150.66s CPU    174.49s WALL (     537 calls)
     fft          :      0.28s CPU      0.62s WALL (     140 calls)
     ffts         :      0.01s CPU      0.01s WALL (      12 calls)
     fftw         :    198.41s CPU    228.44s WALL (  471350 calls)
 
     Parallel routines
 
     PWSCF        :  15m49.65s CPU  21m17.16s WALL

 
   This run was terminated on:  17:57:34  19May2025            

=------------------------------------------------------------------------------=
   JOB DONE.
=------------------------------------------------------------------------------=
