
     Program PWSCF v.6.8 starts on 19May2025 at 17:36:17 

     This program is part of the open-source Quantum ESPRESSO suite
     for quantum simulation of materials; please cite
         "P. Giannozzi et al., J. Phys.:Condens. Matter 21 395502 (2009);
         "P. Giannozzi et al., J. Phys.:Condens. Matter 29 465901 (2017);
         "P. Giannozzi et al., J. Chem. Phys. 152 154105 (2020);
          URL http://www.quantum-espresso.org", 
     in publications or presentations arising from this work. More details at
     http://www.quantum-espresso.org/quote

     Parallel version (MPI & OpenMP), running on      56 processor cores
     Number of MPI processes:                56
     Threads/MPI process:                     1

     MPI processes distributed on     1 nodes
     R & G space division:  proc/nbgrp/npool/nimage =      56
     186380 MiB available memory on the printing compute node when the environment starts
 
     Reading input from supercell-004.in

     Current dimensions of program PWSCF are:
     Max number of different atomic species (ntypx) = 10
     Max number of k-points (npk) =  40000
     Max angular momentum in pseudopotentials (lmaxx) =  4
     Message from routine setup:
     using ibrav=0 with symmetry is DISCOURAGED, use correct ibrav instead

     Subspace diagonalization in iterative solution of the eigenvalue problem:
     one sub-group per band group will be used
     scalapack distributed-memory algorithm (size of sub-group:  7*  7 procs)

 
     Parallelization info
     --------------------
     sticks:   dense  smooth     PW     G-vecs:    dense   smooth      PW
     Min         142     142     37                11872    11872    1609
     Max         143     143     38                11879    11879    1614
     Sum        7985    7985   2105               665041   665041   90217
 
     Using Slab Decomposition
 


     bravais-lattice index     =            0
     lattice parameter (alat)  =      16.4683  a.u.
     unit-cell volume          =   10586.5407 (a.u.)^3
     number of atoms/cell      =          162
     number of atomic types    =            2
     number of electrons       =      1404.00
     number of Kohn-Sham states=          702
     kinetic-energy cutoff     =      60.0000  Ry
     charge density cutoff     =     240.0000  Ry
     scf convergence threshold =      1.0E-08
     mixing beta               =       0.7000
     number of iterations used =            8  plain     mixing
     Exchange-correlation= PBE
                           (   1   4   3   4   0   0   0)

     celldm(1)=  16.468320  celldm(2)=   0.000000  celldm(3)=   0.000000
     celldm(4)=   0.000000  celldm(5)=   0.000000  celldm(6)=   0.000000

     crystal axes: (cart. coord. in units of alat)
               a(1) = (   1.000000   0.000000   0.000000 )  
               a(2) = (   0.000000   1.539583   0.000000 )  
               a(3) = (   0.000000   0.000000   1.539583 )  

     reciprocal axes: (cart. coord. in units 2 pi/alat)
               b(1) = (  1.000000  0.000000  0.000000 )  
               b(2) = (  0.000000  0.649527  0.000000 )  
               b(3) = (  0.000000  0.000000  0.649527 )  


     PseudoPot. # 1 for Ge read from file:
     ./Ge.upf
     MD5 check sum: 087fa14d6c89b52166990835c3b338da
     Pseudo is Norm-conserving + core correction, Zval = 14.0
     Generated using ONCVPSP code by D. R. Hamann
     Using radial grid of 1560 points,  6 beta functions with: 
                l(1) =   0
                l(2) =   0
                l(3) =   1
                l(4) =   1
                l(5) =   2
                l(6) =   2

     PseudoPot. # 2 for O  read from file:
     ./O.upf
     MD5 check sum: 9db02a5ece9d56b81b65a73f8163743d
     Pseudo is Norm-conserving + core correction, Zval =  6.0
     Generated using ONCVPSP code by D. R. Hamann
     Using radial grid of  936 points,  5 beta functions with: 
                l(1) =   0
                l(2) =   0
                l(3) =   1
                l(4) =   1
                l(5) =   2

     atomic species   valence    mass     pseudopotential
        Ge            14.00    72.64000     Ge( 1.00)
        O              6.00    15.99940     O ( 1.00)

      2 Sym. Ops. (no inversion) found



   Cartesian axes

     site n.     atom                  positions (alat units)
         1           Ge  tau(   1) = (   0.1656315   0.2567076   0.2567076  )
         2           Ge  tau(   2) = (   0.5001793   0.2567076   0.2567076  )
         3           Ge  tau(   3) = (   0.8335126   0.2567076   0.2567076  )
         4           Ge  tau(   4) = (   0.1668459   0.7699019   0.2567076  )
         5           Ge  tau(   5) = (   0.5001793   0.7699019   0.2567076  )
         6           Ge  tau(   6) = (   0.8335126   0.7699019   0.2567076  )
         7           Ge  tau(   7) = (   0.1668459   1.2830962   0.2567076  )
         8           Ge  tau(   8) = (   0.5001793   1.2830962   0.2567076  )
         9           Ge  tau(   9) = (   0.8335126   1.2830962   0.2567076  )
        10           Ge  tau(  10) = (   0.1668459   0.2567076   0.7699019  )
        11           Ge  tau(  11) = (   0.5001793   0.2567076   0.7699019  )
        12           Ge  tau(  12) = (   0.8335126   0.2567076   0.7699019  )
        13           Ge  tau(  13) = (   0.1668459   0.7699019   0.7699019  )
        14           Ge  tau(  14) = (   0.5001793   0.7699019   0.7699019  )
        15           Ge  tau(  15) = (   0.8335126   0.7699019   0.7699019  )
        16           Ge  tau(  16) = (   0.1668459   1.2830962   0.7699019  )
        17           Ge  tau(  17) = (   0.5001793   1.2830962   0.7699019  )
        18           Ge  tau(  18) = (   0.8335126   1.2830962   0.7699019  )
        19           Ge  tau(  19) = (   0.1668459   0.2567076   1.2830962  )
        20           Ge  tau(  20) = (   0.5001793   0.2567076   1.2830962  )
        21           Ge  tau(  21) = (   0.8335126   0.2567076   1.2830962  )
        22           Ge  tau(  22) = (   0.1668459   0.7699019   1.2830962  )
        23           Ge  tau(  23) = (   0.5001793   0.7699019   1.2830962  )
        24           Ge  tau(  24) = (   0.8335126   0.7699019   1.2830962  )
        25           Ge  tau(  25) = (   0.1668459   1.2830962   1.2830962  )
        26           Ge  tau(  26) = (   0.5001793   1.2830962   1.2830962  )
        27           Ge  tau(  27) = (   0.8335126   1.2830962   1.2830962  )
        28           Ge  tau(  28) = (   0.0002011   0.0001111   0.0001111  )
        29           Ge  tau(  29) = (   0.3335344   0.0001111   0.0001111  )
        30           Ge  tau(  30) = (   0.6668677   0.0001111   0.0001111  )
        31           Ge  tau(  31) = (   0.0002011   0.5133054   0.0001111  )
        32           Ge  tau(  32) = (   0.3335344   0.5133054   0.0001111  )
        33           Ge  tau(  33) = (   0.6668677   0.5133054   0.0001111  )
        34           Ge  tau(  34) = (   0.0002011   1.0264997   0.0001111  )
        35           Ge  tau(  35) = (   0.3335344   1.0264997   0.0001111  )
        36           Ge  tau(  36) = (   0.6668677   1.0264997   0.0001111  )
        37           Ge  tau(  37) = (   0.0002011   0.0001111   0.5133054  )
        38           Ge  tau(  38) = (   0.3335344   0.0001111   0.5133054  )
        39           Ge  tau(  39) = (   0.6668677   0.0001111   0.5133054  )
        40           Ge  tau(  40) = (   0.0002011   0.5133054   0.5133054  )
        41           Ge  tau(  41) = (   0.3335344   0.5133054   0.5133054  )
        42           Ge  tau(  42) = (   0.6668677   0.5133054   0.5133054  )
        43           Ge  tau(  43) = (   0.0002011   1.0264997   0.5133054  )
        44           Ge  tau(  44) = (   0.3335344   1.0264997   0.5133054  )
        45           Ge  tau(  45) = (   0.6668677   1.0264997   0.5133054  )
        46           Ge  tau(  46) = (   0.0002011   0.0001111   1.0264997  )
        47           Ge  tau(  47) = (   0.3335344   0.0001111   1.0264997  )
        48           Ge  tau(  48) = (   0.6668677   0.0001111   1.0264997  )
        49           Ge  tau(  49) = (   0.0002011   0.5133054   1.0264997  )
        50           Ge  tau(  50) = (   0.3335344   0.5133054   1.0264997  )
        51           Ge  tau(  51) = (   0.6668677   0.5133054   1.0264997  )
        52           Ge  tau(  52) = (   0.0002011   1.0264997   1.0264997  )
        53           Ge  tau(  53) = (   0.3335344   1.0264997   1.0264997  )
        54           Ge  tau(  54) = (   0.6668677   1.0264997   1.0264997  )
        55           O   tau(  55) = (   0.0001875   0.3558055   0.3558055  )
        56           O   tau(  56) = (   0.3335209   0.3558055   0.3558055  )
        57           O   tau(  57) = (   0.6668542   0.3558055   0.3558055  )
        58           O   tau(  58) = (   0.0001875   0.8689998   0.3558055  )
        59           O   tau(  59) = (   0.3335209   0.8689998   0.3558055  )
        60           O   tau(  60) = (   0.6668542   0.8689998   0.3558055  )
        61           O   tau(  61) = (   0.0001875   1.3821941   0.3558055  )
        62           O   tau(  62) = (   0.3335209   1.3821941   0.3558055  )
        63           O   tau(  63) = (   0.6668542   1.3821941   0.3558055  )
        64           O   tau(  64) = (   0.0001875   0.3558055   0.8689998  )
        65           O   tau(  65) = (   0.3335209   0.3558055   0.8689998  )
        66           O   tau(  66) = (   0.6668542   0.3558055   0.8689998  )
        67           O   tau(  67) = (   0.0001875   0.8689998   0.8689998  )
        68           O   tau(  68) = (   0.3335209   0.8689998   0.8689998  )
        69           O   tau(  69) = (   0.6668542   0.8689998   0.8689998  )
        70           O   tau(  70) = (   0.0001875   1.3821941   0.8689998  )
        71           O   tau(  71) = (   0.3335209   1.3821941   0.8689998  )
        72           O   tau(  72) = (   0.6668542   1.3821941   0.8689998  )
        73           O   tau(  73) = (   0.0001875   0.3558055   1.3821941  )
        74           O   tau(  74) = (   0.3335209   0.3558055   1.3821941  )
        75           O   tau(  75) = (   0.6668542   0.3558055   1.3821941  )
        76           O   tau(  76) = (   0.0001875   0.8689998   1.3821941  )
        77           O   tau(  77) = (   0.3335209   0.8689998   1.3821941  )
        78           O   tau(  78) = (   0.6668542   0.8689998   1.3821941  )
        79           O   tau(  79) = (   0.0001875   1.3821941   1.3821941  )
        80           O   tau(  80) = (   0.3335209   1.3821941   1.3821941  )
        81           O   tau(  81) = (   0.6668542   1.3821941   1.3821941  )
        82           O   tau(  82) = (   0.1668565   0.4142272   0.0992221  )
        83           O   tau(  83) = (   0.5001898   0.4142272   0.0992221  )
        84           O   tau(  84) = (   0.8335231   0.4142272   0.0992221  )
        85           O   tau(  85) = (   0.1668565   0.9274215   0.0992221  )
        86           O   tau(  86) = (   0.5001898   0.9274215   0.0992221  )
        87           O   tau(  87) = (   0.8335231   0.9274215   0.0992221  )
        88           O   tau(  88) = (   0.1668565   1.4406159   0.0992221  )
        89           O   tau(  89) = (   0.5001898   1.4406159   0.0992221  )
        90           O   tau(  90) = (   0.8335231   1.4406159   0.0992221  )
        91           O   tau(  91) = (   0.1668565   0.4142272   0.6124165  )
        92           O   tau(  92) = (   0.5001898   0.4142272   0.6124165  )
        93           O   tau(  93) = (   0.8335231   0.4142272   0.6124165  )
        94           O   tau(  94) = (   0.1668565   0.9274215   0.6124165  )
        95           O   tau(  95) = (   0.5001898   0.9274215   0.6124165  )
        96           O   tau(  96) = (   0.8335231   0.9274215   0.6124165  )
        97           O   tau(  97) = (   0.1668565   1.4406159   0.6124165  )
        98           O   tau(  98) = (   0.5001898   1.4406159   0.6124165  )
        99           O   tau(  99) = (   0.8335231   1.4406159   0.6124165  )
       100           O   tau( 100) = (   0.1668565   0.4142272   1.1256108  )
       101           O   tau( 101) = (   0.5001898   0.4142272   1.1256108  )
       102           O   tau( 102) = (   0.8335231   0.4142272   1.1256108  )
       103           O   tau( 103) = (   0.1668565   0.9274215   1.1256108  )
       104           O   tau( 104) = (   0.5001898   0.9274215   1.1256108  )
       105           O   tau( 105) = (   0.8335231   0.9274215   1.1256108  )
       106           O   tau( 106) = (   0.1668565   1.4406159   1.1256108  )
       107           O   tau( 107) = (   0.5001898   1.4406159   1.1256108  )
       108           O   tau( 108) = (   0.8335231   1.4406159   1.1256108  )
       109           O   tau( 109) = (   0.0001875   0.1576176   0.1576176  )
       110           O   tau( 110) = (   0.3335209   0.1576176   0.1576176  )
       111           O   tau( 111) = (   0.6668542   0.1576176   0.1576176  )
       112           O   tau( 112) = (   0.0001875   0.6708120   0.1576176  )
       113           O   tau( 113) = (   0.3335209   0.6708120   0.1576176  )
       114           O   tau( 114) = (   0.6668542   0.6708120   0.1576176  )
       115           O   tau( 115) = (   0.0001875   1.1840063   0.1576176  )
       116           O   tau( 116) = (   0.3335209   1.1840063   0.1576176  )
       117           O   tau( 117) = (   0.6668542   1.1840063   0.1576176  )
       118           O   tau( 118) = (   0.0001875   0.1576176   0.6708120  )
       119           O   tau( 119) = (   0.3335209   0.1576176   0.6708120  )
       120           O   tau( 120) = (   0.6668542   0.1576176   0.6708120  )
       121           O   tau( 121) = (   0.0001875   0.6708120   0.6708120  )
       122           O   tau( 122) = (   0.3335209   0.6708120   0.6708120  )
       123           O   tau( 123) = (   0.6668542   0.6708120   0.6708120  )
       124           O   tau( 124) = (   0.0001875   1.1840063   0.6708120  )
       125           O   tau( 125) = (   0.3335209   1.1840063   0.6708120  )
       126           O   tau( 126) = (   0.6668542   1.1840063   0.6708120  )
       127           O   tau( 127) = (   0.0001875   0.1576176   1.1840063  )
       128           O   tau( 128) = (   0.3335209   0.1576176   1.1840063  )
       129           O   tau( 129) = (   0.6668542   0.1576176   1.1840063  )
       130           O   tau( 130) = (   0.0001875   0.6708120   1.1840063  )
       131           O   tau( 131) = (   0.3335209   0.6708120   1.1840063  )
       132           O   tau( 132) = (   0.6668542   0.6708120   1.1840063  )
       133           O   tau( 133) = (   0.0001875   1.1840063   1.1840063  )
       134           O   tau( 134) = (   0.3335209   1.1840063   1.1840063  )
       135           O   tau( 135) = (   0.6668542   1.1840063   1.1840063  )
       136           O   tau( 136) = (   0.1668565   0.0992221   0.4142272  )
       137           O   tau( 137) = (   0.5001898   0.0992221   0.4142272  )
       138           O   tau( 138) = (   0.8335231   0.0992221   0.4142272  )
       139           O   tau( 139) = (   0.1668565   0.6124165   0.4142272  )
       140           O   tau( 140) = (   0.5001898   0.6124165   0.4142272  )
       141           O   tau( 141) = (   0.8335231   0.6124165   0.4142272  )
       142           O   tau( 142) = (   0.1668565   1.1256108   0.4142272  )
       143           O   tau( 143) = (   0.5001898   1.1256108   0.4142272  )
       144           O   tau( 144) = (   0.8335231   1.1256108   0.4142272  )
       145           O   tau( 145) = (   0.1668565   0.0992221   0.9274215  )
       146           O   tau( 146) = (   0.5001898   0.0992221   0.9274215  )
       147           O   tau( 147) = (   0.8335231   0.0992221   0.9274215  )
       148           O   tau( 148) = (   0.1668565   0.6124165   0.9274215  )
       149           O   tau( 149) = (   0.5001898   0.6124165   0.9274215  )
       150           O   tau( 150) = (   0.8335231   0.6124165   0.9274215  )
       151           O   tau( 151) = (   0.1668565   1.1256108   0.9274215  )
       152           O   tau( 152) = (   0.5001898   1.1256108   0.9274215  )
       153           O   tau( 153) = (   0.8335231   1.1256108   0.9274215  )
       154           O   tau( 154) = (   0.1668565   0.0992221   1.4406159  )
       155           O   tau( 155) = (   0.5001898   0.0992221   1.4406159  )
       156           O   tau( 156) = (   0.8335231   0.0992221   1.4406159  )
       157           O   tau( 157) = (   0.1668565   0.6124165   1.4406159  )
       158           O   tau( 158) = (   0.5001898   0.6124165   1.4406159  )
       159           O   tau( 159) = (   0.8335231   0.6124165   1.4406159  )
       160           O   tau( 160) = (   0.1668565   1.1256108   1.4406159  )
       161           O   tau( 161) = (   0.5001898   1.1256108   1.4406159  )
       162           O   tau( 162) = (   0.8335231   1.1256108   1.4406159  )

     number of k points=     6
                       cart. coord. in units 2pi/alat
        k(    1) = (   0.0000000   0.0000000   0.0000000), wk =   0.1666667
        k(    2) = (   0.0000000   0.0000000  -0.3247633), wk =   0.3333333
        k(    3) = (   0.0000000  -0.3247633  -0.3247633), wk =   0.1666667
        k(    4) = (   0.3333333   0.0000000   0.0000000), wk =   0.3333333
        k(    5) = (   0.3333333   0.0000000  -0.3247633), wk =   0.6666667
        k(    6) = (   0.3333333  -0.3247633  -0.3247633), wk =   0.3333333

     Dense  grid:   665041 G-vectors     FFT dimensions: (  81, 125, 125)

     Estimated max dynamical RAM per process >     265.66 MB

     Estimated total dynamical RAM >      14.53 GB

     Check: negative core charge=   -0.000052

     Initial potential from superposition of free atoms

     starting charge 1403.95515, renormalised to 1404.00000
     Starting wfcs are  918 randomized atomic wfcs

     total cpu time spent up to now is       24.5 secs

     Self-consistent Calculation

     iteration #  1     ecut=    60.00 Ry     beta= 0.70
     Davidson diagonalization with overlap
     ethr =  1.00E-02,  avg # of iterations =  2.0

     total cpu time spent up to now is       92.3 secs

     total energy              =  -13210.92511310 Ry
     estimated scf accuracy    <      34.05005057 Ry

     iteration #  2     ecut=    60.00 Ry     beta= 0.70
     Davidson diagonalization with overlap
     ethr =  2.43E-03,  avg # of iterations =  3.8

     total cpu time spent up to now is      165.3 secs

     total energy              =  -13222.25095408 Ry
     estimated scf accuracy    <      22.02663853 Ry

     iteration #  3     ecut=    60.00 Ry     beta= 0.70
     Davidson diagonalization with overlap
     ethr =  1.57E-03,  avg # of iterations =  2.0

     total cpu time spent up to now is      230.2 secs

     total energy              =  -13225.45771364 Ry
     estimated scf accuracy    <       0.43839248 Ry

     iteration #  4     ecut=    60.00 Ry     beta= 0.70
     Davidson diagonalization with overlap
     ethr =  3.12E-05,  avg # of iterations =  6.0

     total cpu time spent up to now is      326.4 secs

     total energy              =  -13225.87538656 Ry
     estimated scf accuracy    <       0.56247659 Ry

     iteration #  5     ecut=    60.00 Ry     beta= 0.70
     Davidson diagonalization with overlap
     ethr =  3.12E-05,  avg # of iterations =  2.0

     total cpu time spent up to now is      387.1 secs

     total energy              =  -13225.87962303 Ry
     estimated scf accuracy    <       0.09257536 Ry

     iteration #  6     ecut=    60.00 Ry     beta= 0.70
     Davidson diagonalization with overlap
     ethr =  6.59E-06,  avg # of iterations =  4.5

     total cpu time spent up to now is      462.2 secs

     total energy              =  -13225.90729949 Ry
     estimated scf accuracy    <       0.00035814 Ry

     iteration #  7     ecut=    60.00 Ry     beta= 0.70
     Davidson diagonalization with overlap
     ethr =  2.55E-08,  avg # of iterations =  6.0

     total cpu time spent up to now is      578.0 secs

     total energy              =  -13225.90706598 Ry
     estimated scf accuracy    <       0.00398368 Ry

     iteration #  8     ecut=    60.00 Ry     beta= 0.70
     Davidson diagonalization with overlap
     ethr =  2.55E-08,  avg # of iterations =  5.3

     total cpu time spent up to now is      668.0 secs

     total energy              =  -13225.90705986 Ry
     estimated scf accuracy    <       0.00072078 Ry

     iteration #  9     ecut=    60.00 Ry     beta= 0.70
     Davidson diagonalization with overlap
     ethr =  2.55E-08,  avg # of iterations =  4.0

     total cpu time spent up to now is      738.7 secs

     total energy              =  -13225.90711714 Ry
     estimated scf accuracy    <       0.00007153 Ry

     iteration # 10     ecut=    60.00 Ry     beta= 0.70
     Davidson diagonalization with overlap
     ethr =  5.09E-09,  avg # of iterations =  4.2

     total cpu time spent up to now is      805.4 secs

     total energy              =  -13225.90712667 Ry
     estimated scf accuracy    <       0.00000650 Ry

     iteration # 11     ecut=    60.00 Ry     beta= 0.70
     Davidson diagonalization with overlap
     ethr =  4.63E-10,  avg # of iterations =  4.7

     total cpu time spent up to now is      876.7 secs

     total energy              =  -13225.90712789 Ry
     estimated scf accuracy    <       0.00000045 Ry

     iteration # 12     ecut=    60.00 Ry     beta= 0.70
     Davidson diagonalization with overlap
     ethr =  3.18E-11,  avg # of iterations =  4.8

     total cpu time spent up to now is      947.7 secs

     total energy              =  -13225.90712798 Ry
     estimated scf accuracy    <       0.00000005 Ry

     iteration # 13     ecut=    60.00 Ry     beta= 0.70
     Davidson diagonalization with overlap
     ethr =  3.63E-12,  avg # of iterations =  4.5

     total cpu time spent up to now is     1018.9 secs

     End of self-consistent calculation

          k = 0.0000 0.0000 0.0000 ( 83133 PWs)   bands (ev):

   -14.2937 -14.2524 -14.2522 -14.2521 -14.2520 -14.2353 -14.2349 -14.2349
   -14.2348 -14.2248 -14.2202 -14.2197 -14.2194 -14.2190 -14.2188 -14.2183
   -14.2182 -14.2182 -14.2181 -14.2174 -14.2174 -14.2166 -14.2165 -14.2156
   -14.2150 -14.2130 -14.2125 -14.2118 -14.2118 -14.2113 -14.2112 -14.2105
   -14.2080 -14.1886 -14.1885 -14.1885 -14.1885 -14.1861 -14.1845 -14.1841
   -14.1836 -14.1829 -14.1827 -14.1826 -14.1824 -14.1820 -14.1819 -14.1806
   -14.1783 -14.1627 -14.1624 -14.1624 -14.1624 -14.1207 -14.1195 -14.1191
   -14.0672 -14.0667 -14.0654 -14.0654 -14.0652 -14.0651 -14.0638 -14.0634
   -14.0425 -14.0413 -14.0412 -14.0409 -14.0407 -14.0404 -14.0403 -14.0394
   -14.0159 -14.0156 -14.0152 -14.0150 -14.0139 -14.0137 -14.0131 -14.0131
   -13.9929 -13.9921 -13.9919 -13.9917 -13.9915 -13.9914 -13.9913 -13.9912
   -13.9907 -13.9904 -13.9903 -13.9902 -13.9901 -13.9896 -13.9867 -13.9866
   -13.9866 -13.9865 -13.9864 -13.9863 -13.9862 -13.9860 -13.9854 -13.9847
   -13.9846 -13.9846 -13.9843 -13.9832 -13.9830 -13.9818 -13.9810 -13.9809
   -13.9809 -13.9807 -13.9806 -13.9806 -13.9805 -13.9634 -13.9630 -13.9628
   -13.9628 -13.9579 -13.9575 -13.9574 -13.9574 -13.9443 -13.9401 -13.9394
   -13.9365 -13.9364 -13.9361 -13.9359 -13.9358 -13.9358 -13.9357 -13.9357
   -13.9356 -13.9356 -13.9355 -13.9355 -13.9355 -13.9354 -13.9354 -13.9354
   -13.9354 -13.9353 -13.9352 -13.9352 -13.9352 -13.9350 -13.9348 -13.9348
   -13.9347 -13.9346 -13.9345 -13.9345 -13.9342 -13.9340 -13.9318 -13.9314
   -13.9294 -13.9289 -13.9285 -13.9276 -13.9217 -13.9208 -13.9201 -13.9195
   -13.9191 -13.9188 -13.9185 -13.9184 -13.9170 -13.9160 -13.9155 -13.9153
   -13.9153 -13.9149 -13.9145 -13.9143 -13.9142 -13.9142 -13.9141 -13.9141
   -13.9140 -13.9140 -13.9139 -13.9136 -13.9136 -13.9135 -13.9135 -13.9133
   -13.9133 -13.9132 -13.9129 -13.9125 -13.9111 -13.9107 -13.9081 -13.9072
   -13.9059 -13.9046 -13.9038 -13.9034 -13.9034 -13.9020 -13.9019 -13.9016
   -13.9013 -13.8998 -13.8978 -13.8969 -13.8956 -13.8956 -13.8956 -13.8953
   -13.8953 -13.8953 -13.8952 -13.8950 -13.8950 -13.8949 -13.8947 -13.8946
   -13.8942 -13.8941 -13.8938 -13.8936 -13.8936 -13.8934 -13.8928 -13.8925
   -13.8921 -13.8920 -13.8919 -13.8918 -13.8916 -13.8914 -13.8913 -13.8911
   -13.8910 -13.8908 -13.8903 -13.8903 -13.8901 -13.8896 -13.8896 -13.8896
   -13.8892 -13.8866 -13.8862 -13.8862 -13.8858 -13.8857 -13.8857 -13.8856
   -13.8856 -13.8856 -13.8855 -13.8855 -13.8853 -13.8852 -13.8852 -13.8852
   -13.8851 -13.8850 -13.8844 -13.8816 -13.8814 -13.8759 -10.2581  -9.7878
    -9.7875  -9.7875  -9.7875  -9.3403  -9.3398  -9.3398  -9.3398  -9.1881
    -9.1851  -8.8191  -8.8128  -8.8127  -8.8126  -8.8124  -8.8124  -8.8123
    -8.8066  -8.5485  -8.5477  -8.5476  -8.5476  -8.4966  -8.4897  -8.4892
    -8.4892  -8.4890  -8.4889  -8.4885  -8.4846  -8.4723  -8.4723  -8.4722
    -8.4685  -7.9488  -7.9428  -7.9422  -7.9421  -7.9417  -7.9417  -7.9410
    -7.9359  -7.8902  -7.8860  -7.8857  -7.8855  -7.8852  -7.8851  -7.8847
    -7.8789  -7.5837  -7.5836  -7.5836  -7.5835  -7.4328  -7.4328  -7.1668
    -7.1645  -7.1055  -7.1051  -7.1051  -7.1050  -6.9709  -6.9704  -6.9704
    -6.9704  -6.8004  -6.7961  -6.7958  -6.7953  -6.7947  -6.7944  -6.7941
    -6.7901  -6.7333  -6.6800  -6.6779  -6.6762  -6.6744  -6.6015  -6.5960
    -6.5959  -6.5953  -6.5948  -6.5947  -6.5941  -6.5924  -6.5858  -6.5857
    -6.5854  -6.5854  -6.5771  -6.5747  -6.5747  -6.5743  -6.5738  -6.5738
    -6.5738  -6.5674  -6.5041  -6.5012  -6.5008  -6.5008  -6.5008  -6.5005
    -6.5002  -6.4957   0.4404   0.4859   0.4868   1.2329   1.2353   1.2374
     1.2376   1.2378   1.2379   1.2396   1.2418   1.2944   1.2951   1.2953
     1.2953   1.3122   1.3130   1.3132   1.3134   1.3134   1.3135   1.3145
     1.3145   1.8105   1.8127   1.8139   1.8145   1.8152   1.8158   1.8169
     1.8193   2.2368   2.2368   2.2368   2.2369   2.8173   2.8197   2.8209
     2.8211   2.8215   2.8217   2.8228   2.8253   3.3701   3.3710   3.4064
     3.4064   3.4064   3.4064   3.6829   3.6832   3.6832   3.6833   3.8354
     3.8366   3.8368   3.8369   3.8371   3.8371   3.8374   3.8388   4.1508
     4.1554   4.1556   4.1557   4.1557   4.1558   4.1560   4.1608   4.6091
     4.6108   4.6108   4.6114   4.6125   4.6132   4.6132   4.6150   4.9168
     4.9198   4.9210   4.9216   4.9223   4.9226   4.9237   4.9264   4.9272
     4.9273   5.0052   5.0080   5.0080   5.0091   5.0093   5.0103   5.0103
     5.0135   5.2210   5.2210   5.4191   5.4191   5.4192   5.4192   5.5879
     5.5934   5.5934   5.5939   5.5946   5.5949   5.5951   5.5962   5.5975
     5.5978   5.5992   5.6030   5.6638   5.6673   5.6674   5.6680   5.6682
     5.6688   5.6688   5.6732   5.7510   5.8851   5.8852   5.8852   5.8852
     6.1704   6.1704   6.1705   6.1705   6.1903   6.3680   6.3694   6.3703
     6.3717   6.4031   6.4047   6.4785   6.4817   6.4819   6.4820   6.4820
     6.4831   6.4833   6.4835   6.4838   6.4839   6.4840   6.4886   6.6735
     6.6756   6.6769   6.6774   6.6780   6.6787   6.6799   6.6819   6.7652
     6.7652   6.7652   6.7653   7.0554   7.0554   7.0554   7.0555   7.0656
     7.0658   7.0658   7.0658   7.1746   7.2115   7.2115   7.2115   7.2116
     7.2474   7.2493   7.5780   7.5781   7.5781   7.5781   7.6379   7.6380
     7.6381   7.6381   7.8587   7.8601   7.8611   7.8613   7.8615   7.8617
     7.8626   7.8639   7.9036   7.9047   7.9048   7.9050   7.9062   7.9066
     7.9067   7.9078   8.0721   8.0933   8.0935   8.0946   8.0947   8.0948
     8.0948   8.0959   8.0962   8.1642   8.1642   8.1642   8.1642   8.3035
     8.3036   8.3036   8.3036   8.4457   8.4457   8.4458   8.4459   8.4840
     8.4858   8.4868   8.4873   8.4884   8.4889   8.4900   8.4918   8.5171
     8.5172   8.6112   8.6113   8.6113   8.6113   8.6261   8.6262   8.6262
     8.6263   8.6479   8.6505   8.6507   8.6508   8.6514   8.6516   8.6518
     8.6540   8.7164   8.7164   8.7165   8.7165   8.9280   8.9307   8.9318
     8.9319   8.9327   8.9329   8.9342   8.9363   9.0421   9.0435   9.0445
     9.0449   9.0452   9.0456   9.0464   9.0479   9.1421   9.1440   9.1446
     9.1459   9.1520   9.1526   9.1528   9.1538   9.1542   9.1553   9.1561
     9.1562   9.2524   9.2546   9.2551   9.2559   9.2566   9.2574   9.2579
     9.2590   9.2860   9.2860   9.2861   9.2866   9.4628   9.4644   9.5274
     9.5299   9.5302   9.5303   9.5383   9.5400   9.5404   9.5404   9.5405
     9.5407   9.5409   9.5448   9.5817   9.5835   9.5836   9.5840   9.5849
     9.5854   9.5855   9.5883   9.6811   9.6812   9.6812   9.6814   9.7107
     9.7107   9.9198   9.9198   9.9199   9.9201  10.4932

          k = 0.0000 0.0000-0.3248 ( 83134 PWs)   bands (ev):

   -14.2823 -14.2821 -14.2482 -14.2479 -14.2478 -14.2478 -14.2301 -14.2268
   -14.2266 -14.2259 -14.2256 -14.2253 -14.2251 -14.2248 -14.2246 -14.2246
   -14.2236 -14.2222 -14.2124 -14.2123 -14.2122 -14.2121 -14.2038 -14.2037
   -14.2030 -14.2008 -14.2007 -14.2004 -14.1991 -14.1982 -14.1979 -14.1973
   -14.1967 -14.1966 -14.1965 -14.1962 -14.1960 -14.1957 -14.1955 -14.1954
   -14.1950 -14.1948 -14.1934 -14.1925 -14.1902 -14.1899 -14.1898 -14.1869
   -14.1701 -14.1700 -14.1699 -14.1699 -14.1313 -14.1311 -14.0849 -14.0848
   -14.0846 -14.0845 -14.0572 -14.0569 -14.0568 -14.0560 -14.0557 -14.0551
   -14.0550 -14.0547 -14.0483 -14.0482 -14.0476 -14.0472 -14.0465 -14.0462
   -14.0452 -14.0451 -14.0120 -14.0117 -14.0098 -14.0097 -13.9973 -13.9966
   -13.9960 -13.9957 -13.9954 -13.9953 -13.9943 -13.9942 -13.9890 -13.9890
   -13.9890 -13.9888 -13.9885 -13.9883 -13.9882 -13.9880 -13.9878 -13.9875
   -13.9860 -13.9860 -13.9859 -13.9857 -13.9853 -13.9852 -13.9852 -13.9848
   -13.9840 -13.9840 -13.9839 -13.9837 -13.9828 -13.9824 -13.9823 -13.9823
   -13.9793 -13.9791 -13.9712 -13.9708 -13.9708 -13.9707 -13.9687 -13.9686
   -13.9574 -13.9569 -13.9569 -13.9568 -13.9448 -13.9412 -13.9393 -13.9380
   -13.9376 -13.9376 -13.9372 -13.9371 -13.9370 -13.9369 -13.9368 -13.9365
   -13.9365 -13.9362 -13.9362 -13.9359 -13.9358 -13.9357 -13.9355 -13.9354
   -13.9352 -13.9352 -13.9351 -13.9351 -13.9349 -13.9348 -13.9347 -13.9345
   -13.9344 -13.9340 -13.9336 -13.9334 -13.9333 -13.9332 -13.9326 -13.9314
   -13.9310 -13.9293 -13.9236 -13.9218 -13.9214 -13.9202 -13.9200 -13.9199
   -13.9199 -13.9199 -13.9197 -13.9195 -13.9195 -13.9194 -13.9193 -13.9191
   -13.9190 -13.9188 -13.9187 -13.9182 -13.9182 -13.9176 -13.9161 -13.9160
   -13.9159 -13.9148 -13.9147 -13.9144 -13.9135 -13.9134 -13.9132 -13.9131
   -13.9130 -13.9129 -13.9128 -13.9125 -13.9125 -13.9113 -13.9109 -13.9085
   -13.9077 -13.9069 -13.9063 -13.9061 -13.9012 -13.9007 -13.9006 -13.9002
   -13.9002 -13.9000 -13.8996 -13.8996 -13.8978 -13.8977 -13.8975 -13.8959
   -13.8958 -13.8955 -13.8944 -13.8942 -13.8941 -13.8940 -13.8936 -13.8931
   -13.8929 -13.8928 -13.8927 -13.8926 -13.8924 -13.8923 -13.8921 -13.8920
   -13.8917 -13.8917 -13.8915 -13.8915 -13.8914 -13.8909 -13.8909 -13.8905
   -13.8898 -13.8895 -13.8888 -13.8883 -13.8882 -13.8881 -13.8878 -13.8878
   -13.8878 -13.8878 -13.8874 -13.8870 -13.8869 -13.8865 -13.8864 -13.8864
   -13.8863 -13.8862 -13.8861 -13.8860 -13.8859 -13.8857 -13.8856 -13.8848
   -13.8843 -13.8843 -13.8838 -13.8814 -13.8812 -13.8756 -10.1384 -10.1383
    -9.6713  -9.6710  -9.6710  -9.6710  -9.2366  -9.2362  -9.0936  -9.0905
    -9.0904  -9.0875  -8.8654  -8.8648  -8.8648  -8.8647  -8.7322  -8.7262
    -8.7261  -8.7260  -8.7259  -8.7258  -8.7255  -8.7195  -8.4835  -8.4832
    -8.4832  -8.4831  -8.3917  -8.3889  -8.3881  -8.3852  -8.1857  -8.1802
    -8.1794  -8.1793  -8.1790  -8.1789  -8.1780  -8.1722  -7.8851  -7.8797
    -7.8796  -7.8795  -7.8792  -7.8790  -7.8790  -7.8734  -7.8403  -7.8399
    -7.4130  -7.4109  -7.4106  -7.4083  -7.3725  -7.3724  -7.3723  -7.3722
    -7.3433  -7.3432  -7.3162  -7.3160  -7.3160  -7.3159  -6.8056  -6.8050
    -6.7448  -6.7403  -6.7395  -6.7394  -6.7389  -6.7389  -6.7380  -6.7348
    -6.6898  -6.6850  -6.6845  -6.6842  -6.6836  -6.6835  -6.6833  -6.6807
    -6.6721  -6.6721  -6.6718  -6.6702  -6.6475  -6.6462  -6.6461  -6.6435
    -6.5904  -6.5903  -6.5827  -6.5815  -6.5809  -6.5791  -6.5114  -6.5091
    -6.5080  -6.5069  -6.5034  -6.5011  -6.5010  -6.5007  -6.5003  -6.5000
    -6.5000  -6.4945   0.6602   0.6605   0.7089   0.7093   0.7095   0.7102
     1.2541   1.2557   1.2567   1.2572   1.2573   1.2578   1.2586   1.2602
     1.4023   1.4046   1.4066   1.4068   1.4073   1.4074   1.4094   1.4118
     1.5547   1.5547   1.5547   1.5549   2.1259   2.1262   2.1284   2.1287
     2.2556   2.2557   2.4242   2.4265   2.4268   2.4277   2.4286   2.4294
     2.4298   2.4321   3.0955   3.0957   3.0957   3.0958   3.2177   3.2187
     3.2192   3.2203   3.5682   3.5685   3.5685   3.5685   3.6731   3.6747
     3.6755   3.6773   3.8998   3.9021   3.9023   3.9029   3.9030   3.9036
     3.9038   3.9063   4.4046   4.4047   4.4052   4.4053   4.5706   4.5707
     4.8081   4.8104   4.8119   4.8124   4.8133   4.8135   4.8150   4.8171
     4.8594   4.8600   4.8614   4.8614   4.8632   4.8632   4.8649   4.8653
     5.2074   5.2082   5.2096   5.2106   5.2502   5.2533   5.2537   5.2544
     5.2552   5.2557   5.2561   5.2592   5.3819   5.3819   5.6184   5.6194
     5.6204   5.6211   5.6218   5.6219   5.6228   5.6233   5.6235   5.6238
     5.6252   5.6253   5.6375   5.6405   5.6410   5.6414   5.6423   5.6426
     5.6432   5.6474   5.6531   5.6531   5.6532   5.6535   5.7852   5.7868
     5.7869   5.7878   5.7887   5.7895   5.7896   5.7916   5.8578   5.8579
     5.9312   5.9312   5.9314   5.9314   6.2535   6.2535   6.2536   6.2536
     6.4398   6.4399   6.6489   6.6491   6.7091   6.7094   6.7871   6.7871
     6.7873   6.7873   6.9264   6.9282   6.9284   6.9301   7.1865   7.1866
     7.1866   7.1866   7.1924   7.1925   7.1925   7.1925   7.3337   7.3351
     7.3358   7.3370   7.3558   7.3571   7.3576   7.3586   7.3588   7.3598
     7.3604   7.3614   7.4255   7.4255   7.4256   7.4257   7.5548   7.5549
     7.5624   7.5640   7.5640   7.5656   7.6909   7.6916   7.6923   7.6936
     7.6942   7.6955   7.6962   7.6969   7.7606   7.7607   7.7612   7.7615
     8.0698   8.0699   8.0700   8.0701   8.1283   8.1298   8.1300   8.1315
     8.2127   8.2140   8.2153   8.2154   8.2156   8.2156   8.2158   8.2175
     8.2226   8.2226   8.2237   8.2238   8.4156   8.4170   8.4172   8.4177
     8.4179   8.4183   8.4185   8.4200   8.4972   8.4973   8.4974   8.4975
     8.5245   8.5246   8.5247   8.5247   8.5456   8.5457   8.6491   8.6491
     8.6903   8.6906   8.7139   8.7140   8.7140   8.7141   8.7337   8.7350
     8.7364   8.7376   8.9708   8.9729   8.9731   8.9733   8.9746   8.9747
     8.9753   8.9761   8.9818   8.9822   8.9831   8.9833   8.9840   8.9847
     8.9855   8.9858   9.0339   9.0341   9.0818   9.0833   9.0834   9.0851
     9.1710   9.1726   9.1730   9.1745   9.1862   9.1866   9.1877   9.1885
     9.1889   9.1896   9.1903   9.1914   9.2751   9.2754   9.2754   9.2755
     9.3390   9.3406   9.3407   9.3421   9.4193   9.4210   9.4216   9.4216
     9.4231   9.4231   9.4238   9.4253   9.5107   9.5128   9.5130   9.5141
     9.5206   9.5206   9.5208   9.5214   9.5654   9.5680   9.5683   9.5684
     9.5687   9.5689   9.5692   9.5724   9.6942   9.6945   9.7015   9.7017
     9.8168   9.8168   9.8169   9.8172  10.3169  10.3171

          k = 0.0000-0.3248-0.3248 ( 83080 PWs)   bands (ev):

   -14.2741 -14.2738 -14.2738 -14.2738 -14.2245 -14.2198 -14.2191 -14.2189
   -14.2182 -14.2176 -14.2173 -14.2168 -14.2167 -14.2166 -14.2165 -14.2165
   -14.2164 -14.2163 -14.2163 -14.2162 -14.2161 -14.2160 -14.2159 -14.2157
   -14.2156 -14.2155 -14.2151 -14.2145 -14.2139 -14.2109 -14.2075 -14.2075
   -14.2074 -14.2074 -14.2074 -14.2074 -14.2070 -14.2065 -14.1846 -14.1831
   -14.1821 -14.1818 -14.1815 -14.1813 -14.1812 -14.1812 -14.1805 -14.1800
   -14.1795 -14.1769 -14.1403 -14.1400 -14.1399 -14.1399 -14.0844 -14.0839
   -14.0834 -14.0832 -14.0829 -14.0827 -14.0821 -14.0819 -14.0611 -14.0609
   -14.0590 -14.0588 -14.0220 -14.0210 -14.0196 -14.0195 -14.0191 -14.0191
   -14.0188 -14.0188 -14.0186 -14.0185 -14.0183 -14.0183 -14.0179 -14.0178
   -14.0163 -14.0158 -13.9902 -13.9900 -13.9896 -13.9892 -13.9891 -13.9888
   -13.9887 -13.9886 -13.9883 -13.9880 -13.9880 -13.9879 -13.9874 -13.9873
   -13.9860 -13.9860 -13.9860 -13.9860 -13.9859 -13.9859 -13.9858 -13.9852
   -13.9841 -13.9835 -13.9835 -13.9835 -13.9818 -13.9817 -13.9817 -13.9815
   -13.9775 -13.9773 -13.9723 -13.9717 -13.9715 -13.9715 -13.9714 -13.9714
   -13.9714 -13.9714 -13.9441 -13.9435 -13.9432 -13.9431 -13.9431 -13.9397
   -13.9383 -13.9368 -13.9361 -13.9360 -13.9359 -13.9358 -13.9358 -13.9358
   -13.9357 -13.9356 -13.9352 -13.9352 -13.9350 -13.9350 -13.9348 -13.9347
   -13.9346 -13.9345 -13.9344 -13.9343 -13.9340 -13.9339 -13.9337 -13.9333
   -13.9333 -13.9329 -13.9327 -13.9325 -13.9325 -13.9323 -13.9320 -13.9314
   -13.9297 -13.9284 -13.9239 -13.9231 -13.9225 -13.9220 -13.9219 -13.9218
   -13.9212 -13.9211 -13.9186 -13.9184 -13.9166 -13.9166 -13.9164 -13.9161
   -13.9156 -13.9149 -13.9148 -13.9148 -13.9146 -13.9146 -13.9141 -13.9140
   -13.9139 -13.9138 -13.9138 -13.9137 -13.9137 -13.9136 -13.9136 -13.9135
   -13.9135 -13.9135 -13.9134 -13.9133 -13.9133 -13.9131 -13.9124 -13.9109
   -13.9108 -13.9072 -13.9035 -13.9008 -13.9008 -13.9005 -13.9005 -13.9002
   -13.8993 -13.8976 -13.8975 -13.8975 -13.8975 -13.8975 -13.8968 -13.8965
   -13.8965 -13.8964 -13.8964 -13.8964 -13.8964 -13.8964 -13.8962 -13.8962
   -13.8960 -13.8960 -13.8957 -13.8954 -13.8950 -13.8949 -13.8935 -13.8930
   -13.8925 -13.8916 -13.8904 -13.8900 -13.8891 -13.8887 -13.8887 -13.8885
   -13.8885 -13.8885 -13.8883 -13.8883 -13.8882 -13.8881 -13.8879 -13.8878
   -13.8878 -13.8878 -13.8877 -13.8876 -13.8875 -13.8871 -13.8869 -13.8867
   -13.8866 -13.8864 -13.8863 -13.8862 -13.8860 -13.8860 -13.8857 -13.8852
   -13.8844 -13.8843 -13.8839 -13.8819 -13.8807 -13.8758 -10.0191 -10.0189
   -10.0189 -10.0188  -9.1338  -9.1324  -9.1324  -9.1324  -9.1323  -9.1323
    -9.1322  -9.1322  -9.0017  -8.9960  -8.9960  -8.9959  -8.9959  -8.9958
    -8.9958  -8.9895  -8.6663  -8.6661  -8.3374  -8.3257  -8.3254  -8.3250
    -8.3250  -8.3250  -8.3249  -8.3248  -8.3247  -8.3247  -8.3245  -8.3245
    -8.3245  -8.3241  -8.3238  -8.3122  -8.0958  -8.0931  -8.0915  -8.0885
    -7.9328  -7.9327  -7.9327  -7.9324  -7.6327  -7.6326  -7.5352  -7.5309
    -7.5308  -7.5304  -7.5302  -7.5299  -7.5298  -7.5249  -7.4838  -7.4838
    -7.4838  -7.4837  -6.9779  -6.9769  -6.9769  -6.9768  -6.9768  -6.9768
    -6.9767  -6.9767  -6.8359  -6.8340  -6.8323  -6.8304  -6.7215  -6.7171
    -6.7168  -6.7164  -6.7157  -6.7154  -6.7151  -6.7110  -6.5884  -6.5802
    -6.5800  -6.5799  -6.5794  -6.5793  -6.5792  -6.5791  -6.5791  -6.5789
    -6.5788  -6.5788  -6.5787  -6.5784  -6.5779  -6.5713  -6.5531  -6.5531
    -6.5526  -6.5515  -6.5104  -6.5078  -6.5072  -6.5071  -6.5068  -6.5066
    -6.5062  -6.5015   0.8569   0.8584   0.8591   0.8593   0.8595   0.8597
     0.8599   0.8613   0.8961   0.8962   0.8962   0.8971   1.2640   1.2652
     1.2680   1.2692   1.7915   1.7957   1.7964   1.7982   1.7985   1.7985
     1.7986   1.7988   1.7989   1.7992   1.7992   1.7993   1.7995   1.8013
     1.8019   1.8062   2.5048   2.5049   2.5049   2.5049   2.5049   2.5049
     2.5050   2.5050   3.0196   3.0221   3.0227   3.0230   3.0234   3.0237
     3.0243   3.0269   3.4800   3.4801   3.9752   3.9778   3.9778   3.9780
     3.9787   3.9789   3.9789   3.9814   4.2273   4.2311   4.2318   4.2321
     4.2322   4.2332   4.2332   4.2334   4.2340   4.2341   4.2342   4.2352
     4.2353   4.2356   4.2363   4.2401   4.4267   4.4267   4.4267   4.4270
     4.7456   4.7465   4.7495   4.7506   5.2389   5.2389   5.2390   5.2390
     5.3400   5.3444   5.3445   5.3452   5.3460   5.3465   5.3467   5.3500
     5.4177   5.4200   5.4215   5.4217   5.4229   5.4230   5.4245   5.4248
     5.4345   5.4388   5.4390   5.4391   5.4401   5.4402   5.4403   5.4404
     5.4408   5.4409   5.4410   5.4411   5.4421   5.4423   5.4424   5.4501
     5.5639   5.5639   5.9622   5.9623   5.9623   5.9624   6.1981   6.1988
     6.1996   6.2002   6.2012   6.2019   6.2027   6.2034   6.3273   6.3312
     6.3315   6.3317   6.3322   6.3324   6.3326   6.3362   6.4779   6.4779
     6.4779   6.4779   6.4781   6.4781   6.4781   6.4782   6.5920   6.5942
     6.5951   6.5976   6.6436   6.6436   6.6437   6.6437   6.6926   6.6926
     6.6927   6.6927   6.6929   6.6929   6.6929   6.6929   6.8202   6.8212
     6.8242   6.8253   6.8408   6.8413   7.5997   7.5998   7.5998   7.5998
     7.7377   7.7379   7.7379   7.7379   7.7767   7.7801   7.7803   7.7803
     7.7803   7.7804   7.7806   7.7833   7.8463   7.8464   7.8465   7.8465
     7.8466   7.8466   7.8466   7.8470   7.9351   7.9351   7.9363   7.9364
     7.9372   7.9374   7.9384   7.9386   8.2043   8.2067   8.2069   8.2079
     8.2084   8.2090   8.2090   8.2092   8.2094   8.2095   8.2096   8.2101
     8.2107   8.2115   8.2117   8.2140   8.2302   8.2304   8.4161   8.4163
     8.4911   8.4911   8.4913   8.4913   8.6307   8.6307   8.6308   8.6308
     8.6309   8.6310   8.6310   8.6311   8.6656   8.6667   8.6670   8.6670
     8.6822   8.6827   8.6835   8.6835   8.6846   8.6850   8.6851   8.6851
     8.6853   8.6853   8.6855   8.6859   8.6868   8.6870   8.6886   8.6889
     8.7079   8.7079   8.7081   8.7083   9.0714   9.0716   9.0766   9.0784
     9.0786   9.0793   9.0794   9.0802   9.0804   9.0819   9.1711   9.1737
     9.1741   9.1741   9.1750   9.1750   9.1752   9.1779   9.3055   9.3064
     9.3082   9.3087   9.3094   9.3105   9.3123   9.3139   9.3695   9.3740
     9.3746   9.3753   9.3756   9.3756   9.3756   9.3757   9.3759   9.3760
     9.3760   9.3760   9.3764   9.3772   9.3778   9.3821   9.5473   9.5520
     9.5520   9.5522   9.5523   9.5523   9.5526   9.5542   9.5643   9.5643
     9.5644   9.5644   9.5645   9.5645   9.5650   9.5683   9.5924   9.5924
     9.5926   9.5926  10.1726  10.1727  10.1727  10.1730

          k = 0.3333 0.0000 0.0000 ( 83060 PWs)   bands (ev):

   -14.2715 -14.2692 -14.2690 -14.2689 -14.2688 -14.2646 -14.2643 -14.2643
   -14.2643 -14.2601 -14.2598 -14.2598 -14.2598 -14.2375 -14.2373 -14.2372
   -14.2371 -14.2317 -14.2316 -14.2268 -14.2263 -14.2263 -14.2263 -14.2072
   -14.2065 -14.2065 -14.2064 -14.1996 -14.1858 -14.1858 -14.1857 -14.1857
   -14.1651 -14.1642 -14.1641 -14.1640 -14.1618 -14.1616 -14.1616 -14.1609
   -14.1389 -14.1380 -14.1375 -14.1375 -14.1370 -14.1370 -14.1364 -14.1359
   -14.1186 -14.1186 -14.1185 -14.1183 -14.0997 -14.0996 -14.0988 -14.0964
   -14.0964 -14.0964 -14.0964 -14.0676 -14.0675 -14.0675 -14.0675 -14.0525
   -14.0524 -14.0524 -14.0523 -14.0476 -14.0328 -14.0321 -14.0321 -14.0321
   -14.0310 -14.0309 -14.0309 -14.0305 -14.0295 -14.0200 -14.0200 -14.0199
   -14.0199 -14.0196 -14.0195 -14.0183 -14.0183 -14.0183 -14.0183 -14.0182
   -14.0182 -14.0182 -14.0182 -14.0172 -14.0171 -14.0171 -14.0170 -14.0083
   -14.0028 -14.0028 -14.0028 -14.0026 -13.9945 -13.9944 -13.9944 -13.9944
   -13.9831 -13.9830 -13.9829 -13.9829 -13.9823 -13.9685 -13.9669 -13.9668
   -13.9667 -13.9666 -13.9665 -13.9664 -13.9664 -13.9581 -13.9574 -13.9566
   -13.9566 -13.9565 -13.9502 -13.9501 -13.9500 -13.9497 -13.9494 -13.9493
   -13.9492 -13.9487 -13.9486 -13.9480 -13.9478 -13.9478 -13.9477 -13.9473
   -13.9471 -13.9468 -13.9458 -13.9456 -13.9451 -13.9450 -13.9438 -13.9437
   -13.9434 -13.9433 -13.9427 -13.9426 -13.9425 -13.9418 -13.9408 -13.9407
   -13.9387 -13.9384 -13.9381 -13.9380 -13.9365 -13.9363 -13.9363 -13.9359
   -13.9284 -13.9240 -13.9215 -13.9214 -13.9178 -13.9178 -13.9178 -13.9176
   -13.9168 -13.9164 -13.9164 -13.9162 -13.9161 -13.9151 -13.9151 -13.9150
   -13.9150 -13.9126 -13.9125 -13.9123 -13.9122 -13.9106 -13.9094 -13.9090
   -13.9086 -13.9084 -13.9024 -13.9016 -13.9016 -13.9013 -13.9012 -13.9012
   -13.9011 -13.9011 -13.9009 -13.9008 -13.9008 -13.9008 -13.9007 -13.9004
   -13.9001 -13.8994 -13.8993 -13.8992 -13.8991 -13.8989 -13.8985 -13.8984
   -13.8973 -13.8966 -13.8960 -13.8952 -13.8946 -13.8935 -13.8935 -13.8931
   -13.8930 -13.8930 -13.8929 -13.8927 -13.8926 -13.8926 -13.8925 -13.8924
   -13.8923 -13.8921 -13.8917 -13.8916 -13.8914 -13.8913 -13.8903 -13.8903
   -13.8903 -13.8902 -13.8900 -13.8898 -13.8894 -13.8894 -13.8893 -13.8887
   -13.8886 -13.8882 -13.8882 -13.8878 -13.8877 -13.8874 -13.8874 -13.8873
   -13.8871 -13.8871 -13.8871 -13.8870 -13.8866 -13.8866 -13.8866 -13.8865
   -13.8864 -13.8864 -13.8862 -13.8861 -13.8858 -13.8855 -13.8853 -13.8846
   -13.8845 -13.8841 -13.8835 -13.8809 -13.8808 -13.8751 -10.1350  -9.7697
    -9.6690  -9.6688  -9.6688  -9.6688  -9.3275  -9.3270  -9.3270  -9.3270
    -9.2313  -9.2313  -9.2313  -9.2312  -8.9258  -8.9255  -8.9255  -8.9254
    -8.4597  -8.4444  -8.4444  -8.4444  -8.4444  -8.3937  -8.3931  -8.3930
    -8.3930  -8.2444  -8.2436  -8.2436  -8.2436  -8.1842  -8.1841  -8.1840
    -8.1835  -8.1760  -8.1759  -8.1759  -8.1756  -8.0616  -8.0615  -8.0615
    -8.0604  -7.8558  -7.8558  -7.8558  -7.8555  -7.8496  -7.8493  -7.8493
    -7.8486  -7.7275  -7.4671  -7.4669  -7.4669  -7.4669  -7.3210  -7.3208
    -7.1625  -7.1623  -7.1623  -7.1622  -7.0295  -7.0284  -7.0178  -7.0178
    -7.0178  -7.0171  -6.9044  -6.9041  -6.9040  -6.9040  -6.8622  -6.8011
    -6.8011  -6.8011  -6.8011  -6.7550  -6.7449  -6.7447  -6.7446  -6.7444
    -6.5580  -6.5562  -6.5560  -6.5560  -6.5393  -6.5392  -6.5392  -6.5386
    -6.5348  -6.5348  -6.5347  -6.5342  -6.5075  -6.5052  -6.5052  -6.5051
    -6.5027  -6.5026  -6.5025  -6.4991  -6.4741  -6.4740  -6.4740  -6.4730
    -6.4330  -6.4326   0.3946   0.4246   0.7543   0.7556   0.7556   0.7568
     0.9532   1.2345   1.2356   1.2357   1.2365   1.3271   1.3276   1.3277
     1.3277   1.3615   1.3615   1.3615   1.3619   1.3916   1.3916   1.3916
     1.3917   1.8749   1.8776   1.8784   1.8785   1.8789   1.8789   1.8797
     1.8823   1.9341   2.1889   2.1893   2.1893   2.1897   2.6558   2.6568
     2.6569   2.6579   3.3894   3.3902   3.3902   3.3909   3.4929   3.4930
     3.4930   3.4931   3.6191   3.6192   3.6192   3.6192   3.8615   3.8615
     3.8615   3.8617   4.0524   4.0524   4.0524   4.0524   4.2315   4.2316
     4.2316   4.2317   4.2769   4.2769   4.2770   4.2770   4.3370   4.3371
     4.3371   4.3372   4.5210   4.5210   4.5210   4.5210   4.7110   4.7115
     4.7116   4.7121   4.9011   4.9013   4.9014   4.9018   4.9798   4.9798
     5.0481   5.0970   5.0971   5.0972   5.0972   5.1020   5.1021   5.1022
     5.1022   5.1087   5.1296   5.1297   5.1297   5.1298   5.2221   5.3532
     5.3532   5.4831   5.5461   5.5462   5.5462   5.5463   5.7152   5.7152
     5.7822   5.7885   5.7886   5.7886   5.7887   5.8244   5.8245   5.8246
     5.8246   5.9364   5.9368   5.9368   5.9371   5.9830   5.9830   5.9830
     5.9831   6.1915   6.1915   6.1915   6.1916   6.3139   6.3670   6.3677
     6.3677   6.3684   6.4327   6.4327   6.4328   6.4328   6.6297   6.6297
     6.6297   6.6297   6.6757   6.7070   6.7078   6.7078   6.7083   6.7317
     6.7317   6.7318   6.7318   6.7596   6.7766   6.7770   6.7770   6.7778
     6.8111   6.8112   6.8330   6.8330   6.9111   6.9112   6.9112   6.9112
     6.9260   7.1582   7.1582   7.1582   7.1582   7.1605   7.1605   7.1606
     7.1608   7.3745   7.4120   7.4121   7.4121   7.4122   7.4590   7.4591
     7.4594   7.4595   7.7840   7.7840   7.7840   7.7842   7.7965   7.7966
     7.7967   7.7967   7.8633   7.8634   7.8636   7.8638   7.9311   7.9311
     7.9312   7.9312   7.9478   7.9482   7.9693   7.9967   7.9967   7.9967
     7.9967   8.1113   8.1113   8.1113   8.1114   8.2329   8.2331   8.2337
     8.2338   8.2342   8.2345   8.2346   8.2352   8.2462   8.2462   8.2464
     8.2470   8.3091   8.3092   8.3092   8.3093   8.4071   8.4071   8.4071
     8.4072   8.4955   8.4956   8.4956   8.4956   8.5763   8.5766   8.5766
     8.5769   8.6542   8.6544   8.6544   8.6544   8.7454   8.7639   8.7640
     8.8641   8.8646   8.8646   8.8647   8.8777   8.8780   8.8782   8.8782
     8.8980   8.8981   8.8984   8.8985   8.9857   8.9867   8.9868   8.9868
     8.9916   8.9917   8.9917   8.9926   8.9992   8.9993   8.9993   8.9995
     9.0338   9.0338   9.0339   9.0340   9.1442   9.1445   9.1445   9.1445
     9.1728   9.1731   9.1731   9.1731   9.2999   9.3019   9.3019   9.3019
     9.3071   9.3071   9.3072   9.3089   9.3670   9.3683   9.3684   9.3684
     9.3693   9.3694   9.3694   9.3712   9.4961   9.4962   9.6089   9.6089
     9.6090   9.6091   9.6809   9.6809   9.6880   9.6881   9.6881   9.6881
     9.7477   9.7477   9.7478   9.7478   9.8145   9.8145   9.8145   9.8146
     9.9194   9.9194   9.9195   9.9198  10.0259  10.3768

          k = 0.3333 0.0000-0.3248 ( 83068 PWs)   bands (ev):

   -14.2748 -14.2747 -14.2729 -14.2727 -14.2726 -14.2726 -14.2586 -14.2584
   -14.2500 -14.2497 -14.2497 -14.2496 -14.2463 -14.2461 -14.2460 -14.2460
   -14.2449 -14.2448 -14.2414 -14.2412 -14.2226 -14.2221 -14.2221 -14.2221
   -14.1962 -14.1960 -14.1868 -14.1862 -14.1862 -14.1860 -14.1840 -14.1839
   -14.1802 -14.1802 -14.1798 -14.1792 -14.1652 -14.1651 -14.1455 -14.1446
   -14.1445 -14.1445 -14.1411 -14.1410 -14.1410 -14.1403 -14.1295 -14.1295
   -14.1293 -14.1293 -14.1107 -14.1106 -14.1051 -14.1051 -14.0872 -14.0872
   -14.0779 -14.0778 -14.0778 -14.0778 -14.0763 -14.0763 -14.0763 -14.0762
   -14.0479 -14.0479 -14.0356 -14.0356 -14.0354 -14.0353 -14.0324 -14.0323
   -14.0287 -14.0285 -14.0209 -14.0209 -14.0202 -14.0199 -14.0198 -14.0198
   -14.0197 -14.0197 -14.0195 -14.0195 -14.0188 -14.0187 -14.0181 -14.0179
   -14.0179 -14.0179 -14.0177 -14.0176 -14.0176 -14.0175 -14.0173 -14.0173
   -14.0170 -14.0170 -14.0168 -14.0163 -13.9985 -13.9984 -13.9852 -13.9851
   -13.9819 -13.9818 -13.9817 -13.9816 -13.9772 -13.9767 -13.9711 -13.9703
   -13.9703 -13.9702 -13.9646 -13.9641 -13.9638 -13.9637 -13.9606 -13.9605
   -13.9554 -13.9550 -13.9516 -13.9514 -13.9513 -13.9511 -13.9498 -13.9492
   -13.9488 -13.9487 -13.9480 -13.9479 -13.9475 -13.9475 -13.9468 -13.9466
   -13.9464 -13.9462 -13.9449 -13.9445 -13.9438 -13.9436 -13.9436 -13.9434
   -13.9430 -13.9428 -13.9427 -13.9423 -13.9423 -13.9423 -13.9420 -13.9419
   -13.9399 -13.9395 -13.9362 -13.9360 -13.9360 -13.9358 -13.9333 -13.9326
   -13.9316 -13.9302 -13.9178 -13.9177 -13.9169 -13.9169 -13.9164 -13.9162
   -13.9162 -13.9160 -13.9160 -13.9159 -13.9159 -13.9158 -13.9150 -13.9149
   -13.9142 -13.9131 -13.9124 -13.9123 -13.9120 -13.9119 -13.9085 -13.9074
   -13.9061 -13.9061 -13.9058 -13.9058 -13.9039 -13.9039 -13.9021 -13.9019
   -13.9017 -13.9015 -13.9014 -13.9012 -13.9009 -13.9005 -13.9004 -13.8996
   -13.8995 -13.8994 -13.8993 -13.8992 -13.8985 -13.8979 -13.8971 -13.8963
   -13.8958 -13.8953 -13.8952 -13.8952 -13.8948 -13.8946 -13.8941 -13.8940
   -13.8931 -13.8930 -13.8929 -13.8928 -13.8924 -13.8918 -13.8917 -13.8916
   -13.8916 -13.8915 -13.8914 -13.8912 -13.8912 -13.8911 -13.8908 -13.8905
   -13.8903 -13.8895 -13.8893 -13.8893 -13.8893 -13.8891 -13.8891 -13.8890
   -13.8889 -13.8889 -13.8882 -13.8882 -13.8882 -13.8880 -13.8878 -13.8878
   -13.8877 -13.8876 -13.8875 -13.8874 -13.8871 -13.8870 -13.8870 -13.8867
   -13.8864 -13.8864 -13.8862 -13.8859 -13.8858 -13.8858 -13.8854 -13.8849
   -13.8847 -13.8839 -13.8835 -13.8812 -13.8811 -13.8755 -10.0163 -10.0162
    -9.6567  -9.6564  -9.5548  -9.5547  -9.5547  -9.5547  -9.2217  -9.2214
    -9.2214  -9.2213  -9.1243  -9.1241  -8.8135  -8.8130  -8.7712  -8.7711
    -8.7710  -8.7709  -8.5156  -8.5150  -8.5149  -8.5148  -8.4020  -8.4013
    -8.3880  -8.3880  -8.3880  -8.3873  -8.1922  -8.1918  -8.1918  -8.1917
    -8.1423  -8.1423  -8.1422  -8.1417  -8.0367  -8.0364  -7.9227  -7.9224
    -7.9223  -7.9217  -7.8461  -7.8459  -7.8459  -7.8455  -7.7556  -7.7553
    -7.7432  -7.7425  -7.5153  -7.5151  -7.2762  -7.2760  -7.2759  -7.2758
    -7.2376  -7.2375  -7.2190  -7.2186  -7.2186  -7.2186  -7.0270  -7.0269
    -7.0269  -7.0268  -6.9688  -6.9687  -6.9687  -6.9686  -6.9647  -6.9646
    -6.7468  -6.7466  -6.6323  -6.6314  -6.6312  -6.6311  -6.6118  -6.6116
    -6.5927  -6.5925  -6.5847  -6.5840  -6.5554  -6.5545  -6.5544  -6.5544
    -6.5468  -6.5467  -6.5465  -6.5456  -6.5123  -6.5123  -6.5122  -6.5113
    -6.5058  -6.5053  -6.4954  -6.4954  -6.4953  -6.4943  -6.4605  -6.4601
    -6.4441  -6.4437   0.6509   0.6515   0.6611   0.6616   0.8176   0.8187
     0.8188   0.8200   1.0500   1.0510   1.0512   1.0522   1.0736   1.0737
     1.5131   1.5137   1.5138   1.5141   1.5695   1.5696   1.5696   1.5699
     1.7337   1.7337   1.7794   1.7798   1.7799   1.7803   1.9171   1.9171
     2.2757   2.2768   2.2769   2.2779   2.3164   2.3165   2.3955   2.3955
     2.9138   2.9144   2.9145   2.9151   3.1323   3.1330   3.1333   3.1340
     3.4986   3.4991   3.4993   3.4996   3.6177   3.6178   3.8330   3.8331
     3.8337   3.8337   4.1903   4.1905   4.1906   4.1907   4.2264   4.2266
     4.4534   4.4538   4.4540   4.4543   4.5344   4.5344   4.5882   4.5882
     4.6000   4.6000   4.6004   4.6004   4.6764   4.6767   4.6771   4.6772
     4.6795   4.6795   4.7883   4.7883   4.8177   4.8178   4.9789   4.9789
     4.9797   4.9798   5.0297   5.0297   5.0821   5.0822   5.1146   5.1148
     5.1330   5.1330   5.2435   5.2436   5.2778   5.2781   5.2783   5.2784
     5.3334   5.3335   5.3342   5.3344   5.4314   5.4317   5.6278   5.6280
     5.6281   5.6283   5.6941   5.6941   5.6948   5.6948   5.7847   5.7850
     5.7854   5.7857   5.9543   5.9544   5.9545   5.9545   5.9978   5.9979
     6.0701   6.0704   6.0706   6.0710   6.2144   6.2144   6.2145   6.2146
     6.3707   6.3708   6.4689   6.4691   6.4694   6.4696   6.5053   6.5054
     6.5385   6.5385   6.5444   6.5450   6.5451   6.5456   6.5561   6.5562
     6.5711   6.5713   6.7670   6.7671   6.8803   6.8806   6.8811   6.8814
     7.1043   7.1044   7.1045   7.1046   7.1306   7.1307   7.1313   7.1314
     7.2724   7.2724   7.3088   7.3089   7.3996   7.3999   7.4089   7.4092
     7.4098   7.4102   7.4136   7.4144   7.4429   7.4431   7.4431   7.4434
     7.5297   7.5298   7.5299   7.5300   7.5477   7.5478   7.6610   7.6611
     7.7520   7.7521   7.7522   7.7523   7.8345   7.8347   7.8895   7.8897
     7.8898   7.8900   7.9023   7.9023   8.0056   8.0057   8.0058   8.0058
     8.0274   8.0276   8.0609   8.0610   8.1326   8.1327   8.1499   8.1502
     8.1505   8.1507   8.2197   8.2197   8.2204   8.2204   8.2794   8.2796
     8.3484   8.3485   8.3799   8.3800   8.3803   8.3805   8.4472   8.4472
     8.4473   8.4475   8.4645   8.4646   8.5511   8.5512   8.5513   8.5513
     8.7072   8.7073   8.7074   8.7075   8.7112   8.7114   8.7115   8.7115
     8.7501   8.7502   8.7528   8.7529   8.8686   8.8686   8.8688   8.8689
     8.8694   8.8696   8.8697   8.8699   8.9271   8.9271   8.9272   8.9273
     8.9423   8.9423   9.0121   9.0121   9.0121   9.0122   9.0426   9.0427
     9.0529   9.0529   9.0530   9.0531   9.2343   9.2344   9.2400   9.2402
     9.2403   9.2403   9.3163   9.3165   9.3447   9.3454   9.3454   9.3454
     9.3788   9.3789   9.3789   9.3789   9.3797   9.3798   9.3977   9.3978
     9.3979   9.3982   9.4543   9.4544   9.4780   9.4781   9.4860   9.4861
     9.4862   9.4862   9.5004   9.5004   9.5009   9.5009   9.6317   9.6319
     9.6579   9.6581   9.8254   9.8255   9.8256   9.8256   9.8814   9.8814
     9.8815   9.8817   9.9968   9.9969  10.2555  10.2556

          k = 0.3333-0.3248-0.3248 ( 83032 PWs)   bands (ev):

   -14.2672 -14.2667 -14.2666 -14.2666 -14.2666 -14.2665 -14.2665 -14.2665
   -14.2628 -14.2626 -14.2626 -14.2625 -14.2491 -14.2487 -14.2487 -14.2486
   -14.2420 -14.2420 -14.2328 -14.2326 -14.2325 -14.2325 -14.1951 -14.1942
   -14.1941 -14.1941 -14.1869 -14.1866 -14.1822 -14.1820 -14.1820 -14.1819
   -14.1819 -14.1819 -14.1819 -14.1818 -14.1574 -14.1573 -14.1573 -14.1573
   -14.1573 -14.1573 -14.1569 -14.1569 -14.1206 -14.1200 -14.1164 -14.1163
   -14.1163 -14.1161 -14.1042 -14.1041 -14.1041 -14.1038 -14.0973 -14.0973
   -14.0972 -14.0972 -14.0934 -14.0933 -14.0546 -14.0544 -14.0544 -14.0544
   -14.0543 -14.0543 -14.0543 -14.0543 -14.0365 -14.0364 -14.0355 -14.0352
   -14.0352 -14.0351 -14.0294 -14.0294 -14.0293 -14.0287 -14.0193 -14.0192
   -14.0192 -14.0191 -14.0183 -14.0183 -14.0182 -14.0182 -14.0171 -14.0171
   -14.0168 -14.0167 -14.0167 -14.0167 -14.0167 -14.0167 -14.0166 -14.0165
   -13.9929 -13.9927 -13.9927 -13.9927 -13.9927 -13.9927 -13.9926 -13.9926
   -13.9891 -13.9890 -13.9889 -13.9889 -13.9758 -13.9749 -13.9749 -13.9749
   -13.9665 -13.9662 -13.9608 -13.9594 -13.9591 -13.9588 -13.9588 -13.9588
   -13.9588 -13.9587 -13.9557 -13.9556 -13.9554 -13.9543 -13.9496 -13.9490
   -13.9469 -13.9460 -13.9458 -13.9457 -13.9451 -13.9448 -13.9447 -13.9447
   -13.9447 -13.9447 -13.9443 -13.9442 -13.9442 -13.9441 -13.9441 -13.9441
   -13.9440 -13.9436 -13.9429 -13.9426 -13.9426 -13.9424 -13.9416 -13.9415
   -13.9412 -13.9411 -13.9388 -13.9385 -13.9384 -13.9383 -13.9343 -13.9342
   -13.9341 -13.9328 -13.9194 -13.9194 -13.9192 -13.9192 -13.9152 -13.9149
   -13.9148 -13.9147 -13.9146 -13.9146 -13.9146 -13.9145 -13.9125 -13.9125
   -13.9118 -13.9117 -13.9117 -13.9116 -13.9114 -13.9097 -13.9096 -13.9094
   -13.9035 -13.9018 -13.9015 -13.9013 -13.9013 -13.9009 -13.9007 -13.9006
   -13.8998 -13.8997 -13.8996 -13.8996 -13.8996 -13.8996 -13.8996 -13.8995
   -13.8995 -13.8994 -13.8991 -13.8986 -13.8983 -13.8982 -13.8965 -13.8964
   -13.8964 -13.8959 -13.8959 -13.8958 -13.8955 -13.8950 -13.8948 -13.8929
   -13.8929 -13.8928 -13.8928 -13.8928 -13.8928 -13.8927 -13.8927 -13.8925
   -13.8924 -13.8918 -13.8918 -13.8915 -13.8915 -13.8914 -13.8913 -13.8912
   -13.8911 -13.8909 -13.8904 -13.8903 -13.8900 -13.8899 -13.8897 -13.8892
   -13.8887 -13.8884 -13.8884 -13.8884 -13.8884 -13.8884 -13.8883 -13.8881
   -13.8880 -13.8880 -13.8880 -13.8878 -13.8877 -13.8874 -13.8873 -13.8868
   -13.8858 -13.8856 -13.8854 -13.8854 -13.8852 -13.8849 -13.8846 -13.8846
   -13.8845 -13.8845 -13.8843 -13.8817 -13.8810 -13.8760  -9.8983  -9.8980
    -9.8980  -9.8980  -9.5448  -9.5447  -9.5447  -9.5446  -9.0252  -9.0245
    -9.0245  -9.0244  -9.0244  -9.0244  -9.0243  -9.0243  -8.7270  -8.7266
    -8.7265  -8.7265  -8.7265  -8.7265  -8.7264  -8.7264  -8.5881  -8.5879
    -8.3741  -8.3732  -8.3445  -8.3444  -8.3444  -8.3433  -8.0004  -8.0000
    -7.9999  -7.9999  -7.9999  -7.9999  -7.9998  -7.9994  -7.8819  -7.8813
    -7.8482  -7.8482  -7.8481  -7.8478  -7.7723  -7.7722  -7.7722  -7.7717
    -7.6497  -7.6496  -7.6496  -7.6489  -7.5147  -7.5147  -7.3704  -7.3702
    -7.3702  -7.3701  -7.2060  -7.2060  -7.0737  -7.0734  -7.0734  -7.0733
    -6.9071  -6.9066  -6.9066  -6.9065  -6.9065  -6.9064  -6.9064  -6.9064
    -6.7380  -6.7377  -6.7377  -6.7376  -6.7376  -6.7376  -6.7375  -6.7375
    -6.5741  -6.5740  -6.5379  -6.5366  -6.5360  -6.5359  -6.5211  -6.5206
    -6.5205  -6.5205  -6.5205  -6.5205  -6.5204  -6.5203  -6.5121  -6.5121
    -6.5114  -6.5092  -6.4702  -6.4702  -6.4702  -6.4698  -6.4690  -6.4690
    -6.4689  -6.4674   0.6176   0.6188   0.8848   0.8860   0.8860   0.8861
     0.9029   0.9030   0.9030   0.9038   1.0145   1.0153   1.0153   1.0163
     1.3349   1.3365   1.3366   1.3366   1.3367   1.3367   1.3368   1.3384
     1.9828   1.9831   1.9831   1.9834   2.2633   2.2645   2.3381   2.3395
     2.3396   2.3397   2.3397   2.3397   2.3399   2.3410   2.5049   2.5053
     2.5054   2.5054   2.5055   2.5055   2.5055   2.5062   3.1432   3.1439
     3.8612   3.8619   3.8620   3.8626   4.0357   4.0359   4.0359   4.0361
     4.0720   4.0721   4.0722   4.0727   4.0728   4.0732   4.0733   4.0733
     4.0910   4.0911   4.2670   4.2675   4.2676   4.2682   4.5658   4.5661
     4.5662   4.5665   4.5666   4.5667   4.5669   4.5673   4.7119   4.7119
     4.7119   4.7120   4.7850   4.7851   4.7851   4.7851   4.8035   4.8036
     4.8036   4.8038   5.0710   5.0715   5.0715   5.0719   5.0719   5.0723
     5.0724   5.0727   5.3762   5.3762   5.3763   5.3763   5.4985   5.4985
     5.4987   5.4987   5.4988   5.4989   5.4990   5.4990   5.6747   5.6747
     5.7146   5.7146   5.7693   5.7693   5.7694   5.7694   5.8163   5.8170
     5.8170   5.8175   5.8728   5.8733   5.8734   5.8742   6.0366   6.0368
     6.0369   6.0373   6.2903   6.2903   6.3076   6.3076   6.3077   6.3077
     6.3761   6.3763   6.3765   6.3765   6.3766   6.3766   6.3767   6.3769
     6.4000   6.4001   6.4003   6.4004   6.6766   6.6766   6.6766   6.6766
     6.7377   6.7386   6.7716   6.7723   6.8426   6.8427   6.8427   6.8427
     6.8874   6.8874   6.8874   6.8875   6.9157   6.9165   6.9548   6.9548
     7.1702   7.1702   7.1703   7.1704   7.1705   7.1706   7.1708   7.1709
     7.2553   7.2555   7.4628   7.4628   7.4629   7.4629   7.7197   7.7198
     7.7199   7.7200   7.7201   7.7202   7.7202   7.7203   7.8400   7.8401
     7.8401   7.8402   7.9655   7.9655   7.9656   7.9656   7.9967   7.9968
     7.9969   7.9969   8.0382   8.0383   8.0388   8.0389   8.0390   8.0390
     8.0391   8.0396   8.1096   8.1097   8.1098   8.1100   8.1100   8.1103
     8.1104   8.1108   8.1444   8.1445   8.1446   8.1447   8.2147   8.2148
     8.2149   8.2150   8.3052   8.3053   8.3054   8.3054   8.5088   8.5093
     8.5094   8.5096   8.5097   8.5097   8.5098   8.5098   8.5184   8.5185
     8.5187   8.5188   8.5188   8.5190   8.5193   8.5195   8.7250   8.7250
     8.7251   8.7251   8.8003   8.8004   8.8004   8.8005   8.9319   8.9319
     8.9321   8.9321   8.9322   8.9323   8.9323   8.9325   9.0026   9.0027
     9.0546   9.0549   9.0550   9.0550   9.0869   9.0870   9.0870   9.0871
     9.1094   9.1095   9.2020   9.2023   9.2038   9.2041   9.2438   9.2439
     9.2440   9.2441   9.2594   9.2594   9.2595   9.2595   9.2595   9.2596
     9.2596   9.2596   9.2936   9.2936   9.3768   9.3770   9.4453   9.4454
     9.4454   9.4455   9.5172   9.5173   9.5174   9.5175   9.5175   9.5175
     9.5175   9.5176   9.5781   9.5782   9.5783   9.5784   9.5878   9.5878
     9.5879   9.5879   9.5879   9.5881   9.5884   9.5886   9.9747   9.9747
     9.9747   9.9748  10.1644  10.1645  10.1645  10.1648

     highest occupied level (ev):    10.4932

!    total energy              =  -13225.90712798 Ry
     estimated scf accuracy    <          5.1E-09 Ry

     The total energy is the sum of the following terms:
     one-electron contribution =   -4400.33228427 Ry
     hartree contribution      =    3316.27714548 Ry
     xc contribution           =   -3278.83810120 Ry
     ewald contribution        =   -8863.01388800 Ry

     convergence has been achieved in  13 iterations

     Forces acting on atoms (cartesian axes, Ry/au):

     atom    1 type  1   force =     0.01290770   -0.00000457   -0.00000457
     atom    2 type  1   force =    -0.00301498   -0.00000336   -0.00000336
     atom    3 type  1   force =    -0.00305897   -0.00000346   -0.00000346
     atom    4 type  1   force =     0.00012901    0.00001324    0.00000370
     atom    5 type  1   force =    -0.00000075   -0.00012930    0.00008363
     atom    6 type  1   force =    -0.00000207    0.00015603   -0.00007439
     atom    7 type  1   force =     0.00012857    0.00003937   -0.00000705
     atom    8 type  1   force =    -0.00000152    0.00018205   -0.00008686
     atom    9 type  1   force =    -0.00000234   -0.00010291    0.00007105
     atom   10 type  1   force =     0.00012901    0.00000370    0.00001324
     atom   11 type  1   force =    -0.00000075    0.00008363   -0.00012930
     atom   12 type  1   force =    -0.00000207   -0.00007439    0.00015603
     atom   13 type  1   force =     0.00007627    0.00001255    0.00001255
     atom   14 type  1   force =     0.00002267   -0.00000750   -0.00000750
     atom   15 type  1   force =     0.00002234    0.00003082    0.00003082
     atom   16 type  1   force =     0.00006553    0.00003412    0.00001923
     atom   17 type  1   force =     0.00003031    0.00006984   -0.00001591
     atom   18 type  1   force =     0.00002925   -0.00000231    0.00005552
     atom   19 type  1   force =     0.00012857   -0.00000705    0.00003937
     atom   20 type  1   force =    -0.00000152   -0.00008686    0.00018205
     atom   21 type  1   force =    -0.00000234    0.00007105   -0.00010291
     atom   22 type  1   force =     0.00006553    0.00001923    0.00003412
     atom   23 type  1   force =     0.00003031   -0.00001591    0.00006984
     atom   24 type  1   force =     0.00002925    0.00005552   -0.00000231
     atom   25 type  1   force =     0.00007584    0.00004258    0.00004258
     atom   26 type  1   force =     0.00002155    0.00006199    0.00006199
     atom   27 type  1   force =     0.00002226    0.00002394    0.00002394
     atom   28 type  1   force =     0.00019636   -0.00096919   -0.00096919
     atom   29 type  1   force =     0.00019743    0.00098940    0.00098940
     atom   30 type  1   force =    -0.00049909    0.00000898    0.00000898
     atom   31 type  1   force =     0.00020056    0.00025223   -0.00025903
     atom   32 type  1   force =     0.00019547   -0.00028946    0.00028244
     atom   33 type  1   force =    -0.00050216   -0.00001778    0.00001060
     atom   34 type  1   force =    -0.00005282    0.00004096    0.00001464
     atom   35 type  1   force =    -0.00005160    0.00004216    0.00002113
     atom   36 type  1   force =    -0.00006499    0.00004144    0.00001769
     atom   37 type  1   force =     0.00020056   -0.00025903    0.00025223
     atom   38 type  1   force =     0.00019547    0.00028244   -0.00028946
     atom   39 type  1   force =    -0.00050216    0.00001060   -0.00001778
     atom   40 type  1   force =     0.00019498    0.00097448    0.00097448
     atom   41 type  1   force =     0.00019742   -0.00098472   -0.00098472
     atom   42 type  1   force =    -0.00050001   -0.00000479   -0.00000479
     atom   43 type  1   force =    -0.00005318    0.00003392   -0.00001330
     atom   44 type  1   force =    -0.00005220    0.00003311   -0.00002027
     atom   45 type  1   force =    -0.00006502    0.00003257   -0.00001656
     atom   46 type  1   force =    -0.00005282    0.00001464    0.00004096
     atom   47 type  1   force =    -0.00005160    0.00002113    0.00004216
     atom   48 type  1   force =    -0.00006499    0.00001769    0.00004144
     atom   49 type  1   force =    -0.00005318   -0.00001330    0.00003392
     atom   50 type  1   force =    -0.00005220   -0.00002027    0.00003311
     atom   51 type  1   force =    -0.00006502   -0.00001656    0.00003257
     atom   52 type  1   force =    -0.00005855    0.00003015    0.00003015
     atom   53 type  1   force =    -0.00005768    0.00003018    0.00003018
     atom   54 type  1   force =    -0.00005613    0.00003022    0.00003022
     atom   55 type  2   force =    -0.00191912   -0.00053992   -0.00053992
     atom   56 type  2   force =    -0.00182276   -0.00135531   -0.00135531
     atom   57 type  2   force =     0.00053969   -0.00098079   -0.00098079
     atom   58 type  2   force =    -0.00003367   -0.00092163   -0.00097536
     atom   59 type  2   force =    -0.00003344   -0.00089454   -0.00095467
     atom   60 type  2   force =     0.00004560   -0.00090813   -0.00096518
     atom   61 type  2   force =    -0.00007181   -0.00060677   -0.00098394
     atom   62 type  2   force =    -0.00007087   -0.00068338   -0.00092138
     atom   63 type  2   force =     0.00010210   -0.00064460   -0.00095226
     atom   64 type  2   force =    -0.00003367   -0.00097536   -0.00092163
     atom   65 type  2   force =    -0.00003344   -0.00095467   -0.00089454
     atom   66 type  2   force =     0.00004560   -0.00096518   -0.00090813
     atom   67 type  2   force =    -0.00001265   -0.00090524   -0.00090524
     atom   68 type  2   force =    -0.00001214   -0.00088812   -0.00088812
     atom   69 type  2   force =    -0.00000984   -0.00089665   -0.00089665
     atom   70 type  2   force =    -0.00001828   -0.00064785   -0.00091859
     atom   71 type  2   force =    -0.00001767   -0.00064696   -0.00089193
     atom   72 type  2   force =     0.00001154   -0.00064721   -0.00090523
     atom   73 type  2   force =    -0.00007181   -0.00098394   -0.00060677
     atom   74 type  2   force =    -0.00007087   -0.00092138   -0.00068338
     atom   75 type  2   force =     0.00010210   -0.00095226   -0.00064460
     atom   76 type  2   force =    -0.00001828   -0.00091859   -0.00064785
     atom   77 type  2   force =    -0.00001767   -0.00089193   -0.00064696
     atom   78 type  2   force =     0.00001154   -0.00090523   -0.00064721
     atom   79 type  2   force =    -0.00003814   -0.00060748   -0.00060748
     atom   80 type  2   force =    -0.00003791   -0.00065161   -0.00065161
     atom   81 type  2   force =     0.00005479   -0.00062942   -0.00062942
     atom   82 type  2   force =    -0.00100123    0.00070161   -0.00080218
     atom   83 type  2   force =     0.00030064    0.00100720   -0.00110792
     atom   84 type  2   force =     0.00030285    0.00040639   -0.00050695
     atom   85 type  2   force =    -0.00000559    0.00099295   -0.00083552
     atom   86 type  2   force =     0.00002541    0.00099724   -0.00083468
     atom   87 type  2   force =     0.00002563    0.00098892   -0.00083695
     atom   88 type  2   force =    -0.00039286    0.00078655   -0.00081768
     atom   89 type  2   force =     0.00025076    0.00054295   -0.00080953
     atom   90 type  2   force =     0.00024979    0.00102874   -0.00082556
     atom   91 type  2   force =    -0.00038820    0.00071198   -0.00103028
     atom   92 type  2   force =     0.00025528    0.00070388   -0.00078670
     atom   93 type  2   force =     0.00025450    0.00071992   -0.00127249
     atom   94 type  2   force =     0.00000567    0.00099069   -0.00104523
     atom   95 type  2   force =     0.00002297    0.00099412   -0.00104135
     atom   96 type  2   force =     0.00002357    0.00098730   -0.00104909
     atom   97 type  2   force =     0.00002179    0.00080492   -0.00104814
     atom   98 type  2   force =     0.00002590    0.00071429   -0.00095760
     atom   99 type  2   force =     0.00002596    0.00089839   -0.00114166
     atom  100 type  2   force =    -0.00000262    0.00070614   -0.00077213
     atom  101 type  2   force =     0.00002846    0.00070527   -0.00077636
     atom  102 type  2   force =     0.00002870    0.00070754   -0.00076802
     atom  103 type  2   force =     0.00001145    0.00097458   -0.00077786
     atom  104 type  2   force =     0.00002089    0.00097440   -0.00077771
     atom  105 type  2   force =     0.00002155    0.00097492   -0.00077813
     atom  106 type  2   force =     0.00000385    0.00077828   -0.00077527
     atom  107 type  2   force =     0.00002145    0.00077444   -0.00077869
     atom  108 type  2   force =     0.00002192    0.00078219   -0.00077186
     atom  109 type  2   force =    -0.00192143    0.00021416    0.00021416
     atom  110 type  2   force =    -0.00182477    0.00103155    0.00103155
     atom  111 type  2   force =     0.00053869    0.00065622    0.00065622
     atom  112 type  2   force =    -0.00007443    0.00086757    0.00070510
     atom  113 type  2   force =    -0.00007371    0.00094441    0.00064245
     atom  114 type  2   force =     0.00009930    0.00090550    0.00067330
     atom  115 type  2   force =    -0.00003157    0.00100708    0.00068478
     atom  116 type  2   force =    -0.00003119    0.00098004    0.00066420
     atom  117 type  2   force =     0.00004763    0.00099366    0.00067470
     atom  118 type  2   force =    -0.00007443    0.00070510    0.00086757
     atom  119 type  2   force =    -0.00007371    0.00064245    0.00094441
     atom  120 type  2   force =     0.00009930    0.00067330    0.00090550
     atom  121 type  2   force =    -0.00004227    0.00087522    0.00087522
     atom  122 type  2   force =    -0.00004229    0.00091938    0.00091938
     atom  123 type  2   force =     0.00005050    0.00089716    0.00089716
     atom  124 type  2   force =    -0.00001798    0.00101450    0.00090740
     atom  125 type  2   force =    -0.00001728    0.00098776    0.00090651
     atom  126 type  2   force =     0.00001184    0.00100119    0.00090686
     atom  127 type  2   force =    -0.00003157    0.00068478    0.00100708
     atom  128 type  2   force =    -0.00003119    0.00066420    0.00098004
     atom  129 type  2   force =     0.00004763    0.00067470    0.00099366
     atom  130 type  2   force =    -0.00001798    0.00090740    0.00101450
     atom  131 type  2   force =    -0.00001728    0.00090651    0.00098776
     atom  132 type  2   force =     0.00001184    0.00090686    0.00100119
     atom  133 type  2   force =    -0.00000745    0.00102857    0.00102857
     atom  134 type  2   force =    -0.00000702    0.00101145    0.00101145
     atom  135 type  2   force =    -0.00000461    0.00101996    0.00101996
     atom  136 type  2   force =    -0.00100123   -0.00080218    0.00070161
     atom  137 type  2   force =     0.00030064   -0.00110792    0.00100720
     atom  138 type  2   force =     0.00030285   -0.00050695    0.00040639
     atom  139 type  2   force =    -0.00038820   -0.00103028    0.00071198
     atom  140 type  2   force =     0.00025528   -0.00078670    0.00070388
     atom  141 type  2   force =     0.00025450   -0.00127249    0.00071992
     atom  142 type  2   force =    -0.00000262   -0.00077213    0.00070614
     atom  143 type  2   force =     0.00002846   -0.00077636    0.00070527
     atom  144 type  2   force =     0.00002870   -0.00076802    0.00070754
     atom  145 type  2   force =    -0.00000559   -0.00083552    0.00099295
     atom  146 type  2   force =     0.00002541   -0.00083468    0.00099724
     atom  147 type  2   force =     0.00002563   -0.00083695    0.00098892
     atom  148 type  2   force =     0.00000567   -0.00104523    0.00099069
     atom  149 type  2   force =     0.00002297   -0.00104135    0.00099412
     atom  150 type  2   force =     0.00002357   -0.00104909    0.00098730
     atom  151 type  2   force =     0.00001145   -0.00077786    0.00097458
     atom  152 type  2   force =     0.00002089   -0.00077771    0.00097440
     atom  153 type  2   force =     0.00002155   -0.00077813    0.00097492
     atom  154 type  2   force =    -0.00039286   -0.00081768    0.00078655
     atom  155 type  2   force =     0.00025076   -0.00080953    0.00054295
     atom  156 type  2   force =     0.00024979   -0.00082556    0.00102874
     atom  157 type  2   force =     0.00002179   -0.00104814    0.00080492
     atom  158 type  2   force =     0.00002590   -0.00095760    0.00071429
     atom  159 type  2   force =     0.00002596   -0.00114166    0.00089839
     atom  160 type  2   force =     0.00000385   -0.00077527    0.00077828
     atom  161 type  2   force =     0.00002145   -0.00077869    0.00077444
     atom  162 type  2   force =     0.00002192   -0.00077186    0.00078219

     Total force =     0.019377     Total SCF correction =     0.000232
 
     init_run     :     17.84s CPU     24.33s WALL (       1 calls)
     electrons    :    741.33s CPU    994.36s WALL (       1 calls)
     forces       :     15.04s CPU     24.31s WALL (       1 calls)

     Called by init_run:
     wfcinit      :     17.34s CPU     23.73s WALL (       1 calls)
     potinit      :      0.09s CPU      0.11s WALL (       1 calls)
     hinit0       :      0.15s CPU      0.21s WALL (       1 calls)

     Called by electrons:
     c_bands      :    710.57s CPU    959.69s WALL (      13 calls)
     sum_band     :     30.28s CPU     33.77s WALL (      13 calls)
     v_of_rho     :      0.37s CPU      0.63s WALL (      14 calls)
     mix_rho      :      0.11s CPU      0.27s WALL (      13 calls)

     Called by c_bands:
     init_us_2    :      5.76s CPU      5.86s WALL (     168 calls)
     cegterg      :    690.14s CPU    938.68s WALL (      78 calls)

     Called by *egterg:
     cdiaghg      :     50.05s CPU     93.14s WALL (     401 calls)
     h_psi        :    349.07s CPU    385.04s WALL (     407 calls)
     g_psi        :      1.28s CPU      1.31s WALL (     323 calls)

     Called by h_psi:
     h_psi:calbec :    110.41s CPU    120.76s WALL (     407 calls)
     vloc_psi     :    146.45s CPU    169.34s WALL (     407 calls)
     add_vuspsi   :     89.67s CPU     92.08s WALL (     407 calls)

     General routines
     calbec       :    122.20s CPU    141.60s WALL (     431 calls)
     fft          :      0.28s CPU      0.56s WALL (     150 calls)
     ffts         :      0.01s CPU      0.01s WALL (      13 calls)
     fftw         :    161.11s CPU    185.89s WALL (  384024 calls)
 
     Parallel routines
 
     PWSCF        :  12m54.27s CPU  17m23.23s WALL

 
   This run was terminated on:  17:53:40  19May2025            

=------------------------------------------------------------------------------=
   JOB DONE.
=------------------------------------------------------------------------------=
