
     Program PWSCF v.6.8 starts on 19May2025 at 17:37:18 

     This program is part of the open-source Quantum ESPRESSO suite
     for quantum simulation of materials; please cite
         "P. Giannozzi et al., J. Phys.:Condens. Matter 21 395502 (2009);
         "P. Giannozzi et al., J. Phys.:Condens. Matter 29 465901 (2017);
         "P. Giannozzi et al., J. Chem. Phys. 152 154105 (2020);
          URL http://www.quantum-espresso.org", 
     in publications or presentations arising from this work. More details at
     http://www.quantum-espresso.org/quote

     Parallel version (MPI & OpenMP), running on      56 processor cores
     Number of MPI processes:                56
     Threads/MPI process:                     1

     MPI processes distributed on     1 nodes
     R & G space division:  proc/nbgrp/npool/nimage =      56
     185966 MiB available memory on the printing compute node when the environment starts
 
     Reading input from supercell.in

     Current dimensions of program PWSCF are:
     Max number of different atomic species (ntypx) = 10
     Max number of k-points (npk) =  40000
     Max angular momentum in pseudopotentials (lmaxx) =  4
     Found symmetry operation: I + (  0.3333  0.0000  0.0000)
     This is a supercell, fractional translations are disabled
     Message from routine setup:
     using ibrav=0 with symmetry is DISCOURAGED, use correct ibrav instead

     Subspace diagonalization in iterative solution of the eigenvalue problem:
     one sub-group per band group will be used
     scalapack distributed-memory algorithm (size of sub-group:  7*  7 procs)

 
     Parallelization info
     --------------------
     sticks:   dense  smooth     PW     G-vecs:    dense   smooth      PW
     Min         142     142     37                11872    11872    1609
     Max         143     143     38                11879    11879    1614
     Sum        7985    7985   2105               665041   665041   90217
 
     Using Slab Decomposition
 


     bravais-lattice index     =            0
     lattice parameter (alat)  =      16.4683  a.u.
     unit-cell volume          =   10586.5407 (a.u.)^3
     number of atoms/cell      =          162
     number of atomic types    =            2
     number of electrons       =      1404.00
     number of Kohn-Sham states=          702
     kinetic-energy cutoff     =      60.0000  Ry
     charge density cutoff     =     240.0000  Ry
     scf convergence threshold =      1.0E-08
     mixing beta               =       0.7000
     number of iterations used =            8  plain     mixing
     Exchange-correlation= PBE
                           (   1   4   3   4   0   0   0)

     celldm(1)=  16.468320  celldm(2)=   0.000000  celldm(3)=   0.000000
     celldm(4)=   0.000000  celldm(5)=   0.000000  celldm(6)=   0.000000

     crystal axes: (cart. coord. in units of alat)
               a(1) = (   1.000000   0.000000   0.000000 )  
               a(2) = (   0.000000   1.539583   0.000000 )  
               a(3) = (   0.000000   0.000000   1.539583 )  

     reciprocal axes: (cart. coord. in units 2 pi/alat)
               b(1) = (  1.000000  0.000000  0.000000 )  
               b(2) = (  0.000000  0.649527  0.000000 )  
               b(3) = (  0.000000  0.000000  0.649527 )  


     PseudoPot. # 1 for Ge read from file:
     ./Ge.upf
     MD5 check sum: 087fa14d6c89b52166990835c3b338da
     Pseudo is Norm-conserving + core correction, Zval = 14.0
     Generated using ONCVPSP code by D. R. Hamann
     Using radial grid of 1560 points,  6 beta functions with: 
                l(1) =   0
                l(2) =   0
                l(3) =   1
                l(4) =   1
                l(5) =   2
                l(6) =   2

     PseudoPot. # 2 for O  read from file:
     ./O.upf
     MD5 check sum: 9db02a5ece9d56b81b65a73f8163743d
     Pseudo is Norm-conserving + core correction, Zval =  6.0
     Generated using ONCVPSP code by D. R. Hamann
     Using radial grid of  936 points,  5 beta functions with: 
                l(1) =   0
                l(2) =   0
                l(3) =   1
                l(4) =   1
                l(5) =   2

     atomic species   valence    mass     pseudopotential
        Ge            14.00    72.64000     Ge( 1.00)
        O              6.00    15.99940     O ( 1.00)

      2 Sym. Ops. (no inversion) found



   Cartesian axes

     site n.     atom                  positions (alat units)
         1           Ge  tau(   1) = (   0.1668459   0.2567076   0.2567076  )
         2           Ge  tau(   2) = (   0.5001793   0.2567076   0.2567076  )
         3           Ge  tau(   3) = (   0.8335126   0.2567076   0.2567076  )
         4           Ge  tau(   4) = (   0.1668459   0.7699019   0.2567076  )
         5           Ge  tau(   5) = (   0.5001793   0.7699019   0.2567076  )
         6           Ge  tau(   6) = (   0.8335126   0.7699019   0.2567076  )
         7           Ge  tau(   7) = (   0.1668459   1.2830962   0.2567076  )
         8           Ge  tau(   8) = (   0.5001793   1.2830962   0.2567076  )
         9           Ge  tau(   9) = (   0.8335126   1.2830962   0.2567076  )
        10           Ge  tau(  10) = (   0.1668459   0.2567076   0.7699019  )
        11           Ge  tau(  11) = (   0.5001793   0.2567076   0.7699019  )
        12           Ge  tau(  12) = (   0.8335126   0.2567076   0.7699019  )
        13           Ge  tau(  13) = (   0.1668459   0.7699019   0.7699019  )
        14           Ge  tau(  14) = (   0.5001793   0.7699019   0.7699019  )
        15           Ge  tau(  15) = (   0.8335126   0.7699019   0.7699019  )
        16           Ge  tau(  16) = (   0.1668459   1.2830962   0.7699019  )
        17           Ge  tau(  17) = (   0.5001793   1.2830962   0.7699019  )
        18           Ge  tau(  18) = (   0.8335126   1.2830962   0.7699019  )
        19           Ge  tau(  19) = (   0.1668459   0.2567076   1.2830962  )
        20           Ge  tau(  20) = (   0.5001793   0.2567076   1.2830962  )
        21           Ge  tau(  21) = (   0.8335126   0.2567076   1.2830962  )
        22           Ge  tau(  22) = (   0.1668459   0.7699019   1.2830962  )
        23           Ge  tau(  23) = (   0.5001793   0.7699019   1.2830962  )
        24           Ge  tau(  24) = (   0.8335126   0.7699019   1.2830962  )
        25           Ge  tau(  25) = (   0.1668459   1.2830962   1.2830962  )
        26           Ge  tau(  26) = (   0.5001793   1.2830962   1.2830962  )
        27           Ge  tau(  27) = (   0.8335126   1.2830962   1.2830962  )
        28           Ge  tau(  28) = (   0.0002011   0.0001111   0.0001111  )
        29           Ge  tau(  29) = (   0.3335344   0.0001111   0.0001111  )
        30           Ge  tau(  30) = (   0.6668677   0.0001111   0.0001111  )
        31           Ge  tau(  31) = (   0.0002011   0.5133054   0.0001111  )
        32           Ge  tau(  32) = (   0.3335344   0.5133054   0.0001111  )
        33           Ge  tau(  33) = (   0.6668677   0.5133054   0.0001111  )
        34           Ge  tau(  34) = (   0.0002011   1.0264997   0.0001111  )
        35           Ge  tau(  35) = (   0.3335344   1.0264997   0.0001111  )
        36           Ge  tau(  36) = (   0.6668677   1.0264997   0.0001111  )
        37           Ge  tau(  37) = (   0.0002011   0.0001111   0.5133054  )
        38           Ge  tau(  38) = (   0.3335344   0.0001111   0.5133054  )
        39           Ge  tau(  39) = (   0.6668677   0.0001111   0.5133054  )
        40           Ge  tau(  40) = (   0.0002011   0.5133054   0.5133054  )
        41           Ge  tau(  41) = (   0.3335344   0.5133054   0.5133054  )
        42           Ge  tau(  42) = (   0.6668677   0.5133054   0.5133054  )
        43           Ge  tau(  43) = (   0.0002011   1.0264997   0.5133054  )
        44           Ge  tau(  44) = (   0.3335344   1.0264997   0.5133054  )
        45           Ge  tau(  45) = (   0.6668677   1.0264997   0.5133054  )
        46           Ge  tau(  46) = (   0.0002011   0.0001111   1.0264997  )
        47           Ge  tau(  47) = (   0.3335344   0.0001111   1.0264997  )
        48           Ge  tau(  48) = (   0.6668677   0.0001111   1.0264997  )
        49           Ge  tau(  49) = (   0.0002011   0.5133054   1.0264997  )
        50           Ge  tau(  50) = (   0.3335344   0.5133054   1.0264997  )
        51           Ge  tau(  51) = (   0.6668677   0.5133054   1.0264997  )
        52           Ge  tau(  52) = (   0.0002011   1.0264997   1.0264997  )
        53           Ge  tau(  53) = (   0.3335344   1.0264997   1.0264997  )
        54           Ge  tau(  54) = (   0.6668677   1.0264997   1.0264997  )
        55           O   tau(  55) = (   0.0001875   0.3558055   0.3558055  )
        56           O   tau(  56) = (   0.3335209   0.3558055   0.3558055  )
        57           O   tau(  57) = (   0.6668542   0.3558055   0.3558055  )
        58           O   tau(  58) = (   0.0001875   0.8689998   0.3558055  )
        59           O   tau(  59) = (   0.3335209   0.8689998   0.3558055  )
        60           O   tau(  60) = (   0.6668542   0.8689998   0.3558055  )
        61           O   tau(  61) = (   0.0001875   1.3821941   0.3558055  )
        62           O   tau(  62) = (   0.3335209   1.3821941   0.3558055  )
        63           O   tau(  63) = (   0.6668542   1.3821941   0.3558055  )
        64           O   tau(  64) = (   0.0001875   0.3558055   0.8689998  )
        65           O   tau(  65) = (   0.3335209   0.3558055   0.8689998  )
        66           O   tau(  66) = (   0.6668542   0.3558055   0.8689998  )
        67           O   tau(  67) = (   0.0001875   0.8689998   0.8689998  )
        68           O   tau(  68) = (   0.3335209   0.8689998   0.8689998  )
        69           O   tau(  69) = (   0.6668542   0.8689998   0.8689998  )
        70           O   tau(  70) = (   0.0001875   1.3821941   0.8689998  )
        71           O   tau(  71) = (   0.3335209   1.3821941   0.8689998  )
        72           O   tau(  72) = (   0.6668542   1.3821941   0.8689998  )
        73           O   tau(  73) = (   0.0001875   0.3558055   1.3821941  )
        74           O   tau(  74) = (   0.3335209   0.3558055   1.3821941  )
        75           O   tau(  75) = (   0.6668542   0.3558055   1.3821941  )
        76           O   tau(  76) = (   0.0001875   0.8689998   1.3821941  )
        77           O   tau(  77) = (   0.3335209   0.8689998   1.3821941  )
        78           O   tau(  78) = (   0.6668542   0.8689998   1.3821941  )
        79           O   tau(  79) = (   0.0001875   1.3821941   1.3821941  )
        80           O   tau(  80) = (   0.3335209   1.3821941   1.3821941  )
        81           O   tau(  81) = (   0.6668542   1.3821941   1.3821941  )
        82           O   tau(  82) = (   0.1668565   0.4142272   0.0992221  )
        83           O   tau(  83) = (   0.5001898   0.4142272   0.0992221  )
        84           O   tau(  84) = (   0.8335231   0.4142272   0.0992221  )
        85           O   tau(  85) = (   0.1668565   0.9274215   0.0992221  )
        86           O   tau(  86) = (   0.5001898   0.9274215   0.0992221  )
        87           O   tau(  87) = (   0.8335231   0.9274215   0.0992221  )
        88           O   tau(  88) = (   0.1668565   1.4406159   0.0992221  )
        89           O   tau(  89) = (   0.5001898   1.4406159   0.0992221  )
        90           O   tau(  90) = (   0.8335231   1.4406159   0.0992221  )
        91           O   tau(  91) = (   0.1668565   0.4142272   0.6124165  )
        92           O   tau(  92) = (   0.5001898   0.4142272   0.6124165  )
        93           O   tau(  93) = (   0.8335231   0.4142272   0.6124165  )
        94           O   tau(  94) = (   0.1668565   0.9274215   0.6124165  )
        95           O   tau(  95) = (   0.5001898   0.9274215   0.6124165  )
        96           O   tau(  96) = (   0.8335231   0.9274215   0.6124165  )
        97           O   tau(  97) = (   0.1668565   1.4406159   0.6124165  )
        98           O   tau(  98) = (   0.5001898   1.4406159   0.6124165  )
        99           O   tau(  99) = (   0.8335231   1.4406159   0.6124165  )
       100           O   tau( 100) = (   0.1668565   0.4142272   1.1256108  )
       101           O   tau( 101) = (   0.5001898   0.4142272   1.1256108  )
       102           O   tau( 102) = (   0.8335231   0.4142272   1.1256108  )
       103           O   tau( 103) = (   0.1668565   0.9274215   1.1256108  )
       104           O   tau( 104) = (   0.5001898   0.9274215   1.1256108  )
       105           O   tau( 105) = (   0.8335231   0.9274215   1.1256108  )
       106           O   tau( 106) = (   0.1668565   1.4406159   1.1256108  )
       107           O   tau( 107) = (   0.5001898   1.4406159   1.1256108  )
       108           O   tau( 108) = (   0.8335231   1.4406159   1.1256108  )
       109           O   tau( 109) = (   0.0001875   0.1576176   0.1576176  )
       110           O   tau( 110) = (   0.3335209   0.1576176   0.1576176  )
       111           O   tau( 111) = (   0.6668542   0.1576176   0.1576176  )
       112           O   tau( 112) = (   0.0001875   0.6708120   0.1576176  )
       113           O   tau( 113) = (   0.3335209   0.6708120   0.1576176  )
       114           O   tau( 114) = (   0.6668542   0.6708120   0.1576176  )
       115           O   tau( 115) = (   0.0001875   1.1840063   0.1576176  )
       116           O   tau( 116) = (   0.3335209   1.1840063   0.1576176  )
       117           O   tau( 117) = (   0.6668542   1.1840063   0.1576176  )
       118           O   tau( 118) = (   0.0001875   0.1576176   0.6708120  )
       119           O   tau( 119) = (   0.3335209   0.1576176   0.6708120  )
       120           O   tau( 120) = (   0.6668542   0.1576176   0.6708120  )
       121           O   tau( 121) = (   0.0001875   0.6708120   0.6708120  )
       122           O   tau( 122) = (   0.3335209   0.6708120   0.6708120  )
       123           O   tau( 123) = (   0.6668542   0.6708120   0.6708120  )
       124           O   tau( 124) = (   0.0001875   1.1840063   0.6708120  )
       125           O   tau( 125) = (   0.3335209   1.1840063   0.6708120  )
       126           O   tau( 126) = (   0.6668542   1.1840063   0.6708120  )
       127           O   tau( 127) = (   0.0001875   0.1576176   1.1840063  )
       128           O   tau( 128) = (   0.3335209   0.1576176   1.1840063  )
       129           O   tau( 129) = (   0.6668542   0.1576176   1.1840063  )
       130           O   tau( 130) = (   0.0001875   0.6708120   1.1840063  )
       131           O   tau( 131) = (   0.3335209   0.6708120   1.1840063  )
       132           O   tau( 132) = (   0.6668542   0.6708120   1.1840063  )
       133           O   tau( 133) = (   0.0001875   1.1840063   1.1840063  )
       134           O   tau( 134) = (   0.3335209   1.1840063   1.1840063  )
       135           O   tau( 135) = (   0.6668542   1.1840063   1.1840063  )
       136           O   tau( 136) = (   0.1668565   0.0992221   0.4142272  )
       137           O   tau( 137) = (   0.5001898   0.0992221   0.4142272  )
       138           O   tau( 138) = (   0.8335231   0.0992221   0.4142272  )
       139           O   tau( 139) = (   0.1668565   0.6124165   0.4142272  )
       140           O   tau( 140) = (   0.5001898   0.6124165   0.4142272  )
       141           O   tau( 141) = (   0.8335231   0.6124165   0.4142272  )
       142           O   tau( 142) = (   0.1668565   1.1256108   0.4142272  )
       143           O   tau( 143) = (   0.5001898   1.1256108   0.4142272  )
       144           O   tau( 144) = (   0.8335231   1.1256108   0.4142272  )
       145           O   tau( 145) = (   0.1668565   0.0992221   0.9274215  )
       146           O   tau( 146) = (   0.5001898   0.0992221   0.9274215  )
       147           O   tau( 147) = (   0.8335231   0.0992221   0.9274215  )
       148           O   tau( 148) = (   0.1668565   0.6124165   0.9274215  )
       149           O   tau( 149) = (   0.5001898   0.6124165   0.9274215  )
       150           O   tau( 150) = (   0.8335231   0.6124165   0.9274215  )
       151           O   tau( 151) = (   0.1668565   1.1256108   0.9274215  )
       152           O   tau( 152) = (   0.5001898   1.1256108   0.9274215  )
       153           O   tau( 153) = (   0.8335231   1.1256108   0.9274215  )
       154           O   tau( 154) = (   0.1668565   0.0992221   1.4406159  )
       155           O   tau( 155) = (   0.5001898   0.0992221   1.4406159  )
       156           O   tau( 156) = (   0.8335231   0.0992221   1.4406159  )
       157           O   tau( 157) = (   0.1668565   0.6124165   1.4406159  )
       158           O   tau( 158) = (   0.5001898   0.6124165   1.4406159  )
       159           O   tau( 159) = (   0.8335231   0.6124165   1.4406159  )
       160           O   tau( 160) = (   0.1668565   1.1256108   1.4406159  )
       161           O   tau( 161) = (   0.5001898   1.1256108   1.4406159  )
       162           O   tau( 162) = (   0.8335231   1.1256108   1.4406159  )

     number of k points=     6
                       cart. coord. in units 2pi/alat
        k(    1) = (   0.0000000   0.0000000   0.0000000), wk =   0.1666667
        k(    2) = (   0.0000000   0.0000000  -0.3247633), wk =   0.3333333
        k(    3) = (   0.0000000  -0.3247633  -0.3247633), wk =   0.1666667
        k(    4) = (   0.3333333   0.0000000   0.0000000), wk =   0.3333333
        k(    5) = (   0.3333333   0.0000000  -0.3247633), wk =   0.6666667
        k(    6) = (   0.3333333  -0.3247633  -0.3247633), wk =   0.3333333

     Dense  grid:   665041 G-vectors     FFT dimensions: (  81, 125, 125)

     Estimated max dynamical RAM per process >     265.66 MB

     Estimated total dynamical RAM >      14.53 GB

     Check: negative core charge=   -0.000052

     Initial potential from superposition of free atoms

     starting charge 1403.95515, renormalised to 1404.00000
     Starting wfcs are  918 randomized atomic wfcs

     total cpu time spent up to now is       24.7 secs

     Self-consistent Calculation

     iteration #  1     ecut=    60.00 Ry     beta= 0.70
     Davidson diagonalization with overlap
     ethr =  1.00E-02,  avg # of iterations =  2.0

     total cpu time spent up to now is       92.9 secs

     total energy              =  -13210.92608362 Ry
     estimated scf accuracy    <      34.04893830 Ry

     iteration #  2     ecut=    60.00 Ry     beta= 0.70
     Davidson diagonalization with overlap
     ethr =  2.43E-03,  avg # of iterations =  3.8

     total cpu time spent up to now is      166.2 secs

     total energy              =  -13222.25379909 Ry
     estimated scf accuracy    <      22.01796646 Ry

     iteration #  3     ecut=    60.00 Ry     beta= 0.70
     Davidson diagonalization with overlap
     ethr =  1.57E-03,  avg # of iterations =  2.0

     total cpu time spent up to now is      231.4 secs

     total energy              =  -13225.45815636 Ry
     estimated scf accuracy    <       0.43851978 Ry

     iteration #  4     ecut=    60.00 Ry     beta= 0.70
     Davidson diagonalization with overlap
     ethr =  3.12E-05,  avg # of iterations =  6.0

     total cpu time spent up to now is      327.5 secs

     total energy              =  -13225.87538821 Ry
     estimated scf accuracy    <       0.56183127 Ry

     iteration #  5     ecut=    60.00 Ry     beta= 0.70
     Davidson diagonalization with overlap
     ethr =  3.12E-05,  avg # of iterations =  2.0

     total cpu time spent up to now is      388.2 secs

     total energy              =  -13225.87379269 Ry
     estimated scf accuracy    <       0.09219023 Ry

     iteration #  6     ecut=    60.00 Ry     beta= 0.70
     Davidson diagonalization with overlap
     ethr =  6.57E-06,  avg # of iterations =  4.5

     total cpu time spent up to now is      464.4 secs

     total energy              =  -13225.90783780 Ry
     estimated scf accuracy    <       0.00280906 Ry

     iteration #  7     ecut=    60.00 Ry     beta= 0.70
     Davidson diagonalization with overlap
     ethr =  2.00E-07,  avg # of iterations =  2.0

     total cpu time spent up to now is      520.2 secs

     total energy              =  -13225.90728346 Ry
     estimated scf accuracy    <       0.00247640 Ry

     iteration #  8     ecut=    60.00 Ry     beta= 0.70
     Davidson diagonalization with overlap
     ethr =  1.76E-07,  avg # of iterations =  2.0

     total cpu time spent up to now is      574.4 secs

     total energy              =  -13225.90712095 Ry
     estimated scf accuracy    <       0.00070357 Ry

     iteration #  9     ecut=    60.00 Ry     beta= 0.70
     Davidson diagonalization with overlap
     ethr =  5.01E-08,  avg # of iterations =  4.3

     total cpu time spent up to now is      646.9 secs

     total energy              =  -13225.90724815 Ry
     estimated scf accuracy    <       0.00001636 Ry

     iteration # 10     ecut=    60.00 Ry     beta= 0.70
     Davidson diagonalization with overlap
     ethr =  1.17E-09,  avg # of iterations =  6.0

     total cpu time spent up to now is      734.7 secs

     total energy              =  -13225.90725711 Ry
     estimated scf accuracy    <       0.00000267 Ry

     iteration # 11     ecut=    60.00 Ry     beta= 0.70
     Davidson diagonalization with overlap
     ethr =  1.90E-10,  avg # of iterations =  2.8

     total cpu time spent up to now is      801.0 secs

     total energy              =  -13225.90725738 Ry
     estimated scf accuracy    <       0.00000026 Ry

     iteration # 12     ecut=    60.00 Ry     beta= 0.70
     Davidson diagonalization with overlap
     ethr =  1.87E-11,  avg # of iterations =  4.8

     total cpu time spent up to now is      871.7 secs

     total energy              =  -13225.90725743 Ry
     estimated scf accuracy    <       0.00000003 Ry

     iteration # 13     ecut=    60.00 Ry     beta= 0.70
     Davidson diagonalization with overlap
     ethr =  1.92E-12,  avg # of iterations =  4.2

     total cpu time spent up to now is      939.7 secs

     End of self-consistent calculation

          k = 0.0000 0.0000 0.0000 ( 83133 PWs)   bands (ev):

   -14.2936 -14.2520 -14.2520 -14.2520 -14.2520 -14.2348 -14.2348 -14.2348
   -14.2348 -14.2190 -14.2190 -14.2190 -14.2190 -14.2190 -14.2190 -14.2190
   -14.2190 -14.2170 -14.2170 -14.2170 -14.2170 -14.2170 -14.2170 -14.2170
   -14.2170 -14.2116 -14.2116 -14.2116 -14.2116 -14.2116 -14.2116 -14.2116
   -14.2115 -14.1885 -14.1884 -14.1884 -14.1884 -14.1833 -14.1833 -14.1832
   -14.1832 -14.1832 -14.1832 -14.1832 -14.1832 -14.1817 -14.1817 -14.1817
   -14.1817 -14.1624 -14.1624 -14.1624 -14.1624 -14.1206 -14.1193 -14.1193
   -14.0653 -14.0653 -14.0653 -14.0653 -14.0652 -14.0652 -14.0652 -14.0652
   -14.0408 -14.0408 -14.0408 -14.0408 -14.0407 -14.0407 -14.0407 -14.0407
   -14.0144 -14.0144 -14.0144 -14.0144 -14.0144 -14.0144 -14.0144 -14.0144
   -13.9916 -13.9916 -13.9913 -13.9913 -13.9913 -13.9913 -13.9913 -13.9913
   -13.9913 -13.9913 -13.9904 -13.9904 -13.9904 -13.9904 -13.9866 -13.9866
   -13.9866 -13.9866 -13.9863 -13.9863 -13.9863 -13.9863 -13.9852 -13.9846
   -13.9846 -13.9846 -13.9846 -13.9832 -13.9831 -13.9809 -13.9809 -13.9809
   -13.9809 -13.9805 -13.9805 -13.9805 -13.9805 -13.9628 -13.9628 -13.9628
   -13.9627 -13.9574 -13.9574 -13.9574 -13.9573 -13.9356 -13.9356 -13.9356
   -13.9356 -13.9356 -13.9356 -13.9356 -13.9356 -13.9356 -13.9356 -13.9356
   -13.9356 -13.9355 -13.9355 -13.9355 -13.9355 -13.9355 -13.9355 -13.9355
   -13.9354 -13.9354 -13.9354 -13.9354 -13.9354 -13.9350 -13.9350 -13.9350
   -13.9350 -13.9349 -13.9349 -13.9349 -13.9349 -13.9341 -13.9341 -13.9341
   -13.9341 -13.9285 -13.9285 -13.9273 -13.9193 -13.9193 -13.9193 -13.9193
   -13.9192 -13.9192 -13.9192 -13.9192 -13.9156 -13.9156 -13.9142 -13.9142
   -13.9142 -13.9142 -13.9142 -13.9142 -13.9142 -13.9142 -13.9138 -13.9138
   -13.9138 -13.9138 -13.9138 -13.9138 -13.9138 -13.9138 -13.9131 -13.9131
   -13.9131 -13.9131 -13.9131 -13.9131 -13.9131 -13.9131 -13.9128 -13.9054
   -13.9054 -13.9033 -13.9033 -13.9033 -13.9033 -13.9020 -13.9020 -13.9020
   -13.9020 -13.8957 -13.8956 -13.8956 -13.8956 -13.8952 -13.8952 -13.8952
   -13.8952 -13.8952 -13.8952 -13.8952 -13.8952 -13.8947 -13.8947 -13.8947
   -13.8947 -13.8942 -13.8942 -13.8942 -13.8941 -13.8920 -13.8920 -13.8920
   -13.8920 -13.8919 -13.8919 -13.8919 -13.8919 -13.8910 -13.8910 -13.8910
   -13.8910 -13.8910 -13.8910 -13.8910 -13.8910 -13.8895 -13.8895 -13.8895
   -13.8895 -13.8857 -13.8857 -13.8857 -13.8857 -13.8857 -13.8857 -13.8857
   -13.8857 -13.8854 -13.8854 -13.8854 -13.8854 -13.8854 -13.8854 -13.8854
   -13.8854 -13.8854 -13.8854 -13.8849 -13.8849 -13.8836 -10.2581  -9.7875
    -9.7875  -9.7875  -9.7875  -9.3398  -9.3398  -9.3398  -9.3398  -9.1866
    -9.1866  -8.8126  -8.8126  -8.8126  -8.8126  -8.8125  -8.8125  -8.8125
    -8.8125  -8.5476  -8.5476  -8.5476  -8.5476  -8.4891  -8.4891  -8.4891
    -8.4891  -8.4891  -8.4891  -8.4891  -8.4891  -8.4723  -8.4723  -8.4723
    -8.4723  -7.9420  -7.9420  -7.9420  -7.9420  -7.9419  -7.9419  -7.9419
    -7.9419  -7.8854  -7.8854  -7.8854  -7.8854  -7.8854  -7.8854  -7.8854
    -7.8854  -7.5836  -7.5836  -7.5835  -7.5835  -7.4328  -7.4328  -7.1656
    -7.1656  -7.1051  -7.1051  -7.1051  -7.1051  -6.9704  -6.9704  -6.9704
    -6.9704  -6.7951  -6.7951  -6.7951  -6.7951  -6.7950  -6.7950  -6.7950
    -6.7950  -6.7333  -6.6771  -6.6771  -6.6770  -6.6770  -6.5950  -6.5950
    -6.5950  -6.5950  -6.5950  -6.5950  -6.5950  -6.5950  -6.5858  -6.5858
    -6.5858  -6.5858  -6.5743  -6.5743  -6.5743  -6.5743  -6.5743  -6.5743
    -6.5743  -6.5743  -6.5008  -6.5008  -6.5008  -6.5008  -6.5008  -6.5008
    -6.5008  -6.5008   0.4405   0.4863   0.4863   1.2377   1.2377   1.2377
     1.2377   1.2377   1.2377   1.2377   1.2377   1.2953   1.2953   1.2953
     1.2953   1.3133   1.3133   1.3133   1.3133   1.3133   1.3133   1.3133
     1.3133   1.8148   1.8148   1.8148   1.8148   1.8148   1.8149   1.8149
     1.8149   2.2368   2.2368   2.2368   2.2368   2.8213   2.8213   2.8213
     2.8213   2.8213   2.8213   2.8213   2.8213   3.3706   3.3706   3.4064
     3.4064   3.4064   3.4064   3.6832   3.6832   3.6833   3.6833   3.8370
     3.8370   3.8370   3.8370   3.8370   3.8370   3.8370   3.8370   4.1557
     4.1557   4.1557   4.1557   4.1557   4.1557   4.1557   4.1557   4.6120
     4.6120   4.6120   4.6120   4.6120   4.6120   4.6120   4.6120   4.9218
     4.9218   4.9218   4.9218   4.9219   4.9219   4.9219   4.9219   4.9273
     4.9273   5.0091   5.0091   5.0091   5.0091   5.0092   5.0092   5.0092
     5.0092   5.2210   5.2210   5.4192   5.4192   5.4192   5.4192   5.5943
     5.5943   5.5943   5.5943   5.5943   5.5943   5.5943   5.5943   5.5984
     5.5984   5.5985   5.5985   5.6681   5.6681   5.6681   5.6681   5.6681
     5.6681   5.6681   5.6681   5.7510   5.8852   5.8852   5.8852   5.8852
     6.1704   6.1704   6.1704   6.1705   6.1903   6.3699   6.3699   6.3699
     6.3699   6.4039   6.4039   6.4819   6.4819   6.4820   6.4820   6.4836
     6.4836   6.4836   6.4836   6.4836   6.4836   6.4836   6.4836   6.6777
     6.6777   6.6777   6.6777   6.6777   6.6777   6.6778   6.6778   6.7652
     6.7652   6.7652   6.7652   7.0554   7.0554   7.0554   7.0554   7.0658
     7.0658   7.0658   7.0658   7.1746   7.2115   7.2115   7.2115   7.2115
     7.2483   7.2483   7.5781   7.5781   7.5781   7.5781   7.6380   7.6381
     7.6381   7.6381   7.8614   7.8614   7.8614   7.8614   7.8614   7.8614
     7.8614   7.8614   7.9056   7.9056   7.9056   7.9056   7.9056   7.9056
     7.9056   7.9056   8.0721   8.0947   8.0947   8.0947   8.0947   8.0947
     8.0947   8.0947   8.0947   8.1642   8.1642   8.1642   8.1642   8.3036
     8.3036   8.3036   8.3036   8.4457   8.4457   8.4458   8.4458   8.4878
     8.4878   8.4878   8.4878   8.4878   8.4878   8.4878   8.4878   8.5171
     8.5172   8.6113   8.6113   8.6113   8.6113   8.6262   8.6262   8.6263
     8.6263   8.6510   8.6510   8.6510   8.6510   8.6510   8.6511   8.6511
     8.6511   8.7164   8.7164   8.7164   8.7164   8.9323   8.9323   8.9323
     8.9323   8.9323   8.9323   8.9324   8.9324   9.0450   9.0450   9.0450
     9.0450   9.0450   9.0450   9.0450   9.0450   9.1443   9.1443   9.1443
     9.1443   9.1540   9.1540   9.1540   9.1540   9.1540   9.1540   9.1540
     9.1540   9.2562   9.2562   9.2562   9.2562   9.2563   9.2563   9.2563
     9.2563   9.2858   9.2858   9.2858   9.2858   9.4637   9.4637   9.5302
     9.5302   9.5303   9.5303   9.5404   9.5404   9.5404   9.5404   9.5404
     9.5404   9.5404   9.5404   9.5844   9.5844   9.5844   9.5844   9.5844
     9.5844   9.5844   9.5844   9.6811   9.6811   9.6811   9.6811   9.7106
     9.7106   9.9198   9.9198   9.9198   9.9198  10.4931

          k = 0.0000 0.0000-0.3248 ( 83134 PWs)   bands (ev):

   -14.2821 -14.2820 -14.2478 -14.2478 -14.2477 -14.2477 -14.2256 -14.2256
   -14.2255 -14.2255 -14.2255 -14.2255 -14.2255 -14.2255 -14.2244 -14.2244
   -14.2244 -14.2244 -14.2122 -14.2121 -14.2121 -14.2121 -14.2034 -14.2034
   -14.2005 -14.2005 -14.2005 -14.2005 -14.1970 -14.1970 -14.1970 -14.1970
   -14.1970 -14.1970 -14.1970 -14.1970 -14.1952 -14.1952 -14.1952 -14.1952
   -14.1951 -14.1951 -14.1951 -14.1951 -14.1900 -14.1900 -14.1900 -14.1900
   -14.1699 -14.1699 -14.1699 -14.1699 -14.1311 -14.1310 -14.0846 -14.0846
   -14.0846 -14.0846 -14.0558 -14.0558 -14.0558 -14.0558 -14.0558 -14.0558
   -14.0558 -14.0558 -14.0469 -14.0469 -14.0468 -14.0468 -14.0468 -14.0468
   -14.0468 -14.0468 -14.0107 -14.0107 -14.0107 -14.0107 -13.9955 -13.9955
   -13.9955 -13.9955 -13.9955 -13.9955 -13.9955 -13.9955 -13.9890 -13.9890
   -13.9890 -13.9889 -13.9883 -13.9883 -13.9882 -13.9882 -13.9878 -13.9877
   -13.9860 -13.9860 -13.9859 -13.9859 -13.9854 -13.9853 -13.9848 -13.9847
   -13.9840 -13.9840 -13.9840 -13.9839 -13.9823 -13.9823 -13.9822 -13.9822
   -13.9793 -13.9792 -13.9707 -13.9706 -13.9706 -13.9706 -13.9685 -13.9684
   -13.9568 -13.9568 -13.9567 -13.9567 -13.9374 -13.9374 -13.9374 -13.9374
   -13.9374 -13.9374 -13.9373 -13.9373 -13.9366 -13.9366 -13.9365 -13.9365
   -13.9362 -13.9362 -13.9362 -13.9362 -13.9352 -13.9351 -13.9351 -13.9351
   -13.9351 -13.9351 -13.9351 -13.9350 -13.9348 -13.9348 -13.9348 -13.9348
   -13.9347 -13.9347 -13.9347 -13.9347 -13.9334 -13.9333 -13.9326 -13.9326
   -13.9325 -13.9325 -13.9198 -13.9198 -13.9198 -13.9198 -13.9197 -13.9197
   -13.9197 -13.9197 -13.9196 -13.9196 -13.9196 -13.9196 -13.9196 -13.9196
   -13.9196 -13.9195 -13.9187 -13.9187 -13.9187 -13.9187 -13.9153 -13.9153
   -13.9153 -13.9153 -13.9147 -13.9147 -13.9130 -13.9130 -13.9130 -13.9130
   -13.9127 -13.9127 -13.9127 -13.9127 -13.9126 -13.9126 -13.9126 -13.9126
   -13.9061 -13.9061 -13.9061 -13.9060 -13.9006 -13.9006 -13.9006 -13.9006
   -13.8997 -13.8997 -13.8996 -13.8996 -13.8980 -13.8979 -13.8959 -13.8959
   -13.8942 -13.8942 -13.8941 -13.8941 -13.8929 -13.8929 -13.8929 -13.8929
   -13.8928 -13.8928 -13.8928 -13.8928 -13.8921 -13.8921 -13.8920 -13.8920
   -13.8915 -13.8915 -13.8914 -13.8914 -13.8914 -13.8914 -13.8914 -13.8914
   -13.8882 -13.8882 -13.8881 -13.8881 -13.8881 -13.8880 -13.8877 -13.8877
   -13.8876 -13.8876 -13.8876 -13.8876 -13.8876 -13.8876 -13.8863 -13.8863
   -13.8860 -13.8860 -13.8860 -13.8860 -13.8860 -13.8860 -13.8860 -13.8860
   -13.8856 -13.8855 -13.8838 -13.8838 -13.8837 -13.8837 -10.1383 -10.1382
    -9.6711  -9.6710  -9.6710  -9.6710  -9.2363  -9.2362  -9.0905  -9.0905
    -9.0904  -9.0904  -8.8648  -8.8648  -8.8647  -8.8647  -8.7260  -8.7259
    -8.7259  -8.7259  -8.7259  -8.7259  -8.7259  -8.7259  -8.4832  -8.4832
    -8.4831  -8.4831  -8.3886  -8.3886  -8.3885  -8.3885  -8.1792  -8.1792
    -8.1792  -8.1792  -8.1791  -8.1791  -8.1791  -8.1791  -7.8794  -7.8794
    -7.8794  -7.8793  -7.8793  -7.8793  -7.8793  -7.8793  -7.8403  -7.8403
    -7.4107  -7.4107  -7.4107  -7.4107  -7.3724  -7.3724  -7.3723  -7.3723
    -7.3432  -7.3431  -7.3160  -7.3160  -7.3160  -7.3160  -6.8050  -6.8049
    -6.7392  -6.7392  -6.7392  -6.7392  -6.7391  -6.7391  -6.7391  -6.7391
    -6.6840  -6.6840  -6.6840  -6.6840  -6.6839  -6.6839  -6.6839  -6.6839
    -6.6721  -6.6721  -6.6721  -6.6721  -6.6462  -6.6462  -6.6461  -6.6461
    -6.5898  -6.5897  -6.5815  -6.5815  -6.5815  -6.5815  -6.5086  -6.5086
    -6.5085  -6.5085  -6.5006  -6.5006  -6.5006  -6.5006  -6.5005  -6.5005
    -6.5005  -6.5005   0.6605   0.6606   0.7094   0.7094   0.7095   0.7095
     1.2572   1.2572   1.2572   1.2572   1.2573   1.2573   1.2573   1.2573
     1.4069   1.4069   1.4070   1.4070   1.4070   1.4070   1.4071   1.4071
     1.5547   1.5547   1.5547   1.5547   2.1273   2.1273   2.1274   2.1274
     2.2556   2.2557   2.4281   2.4281   2.4281   2.4281   2.4281   2.4281
     2.4282   2.4282   3.0957   3.0957   3.0958   3.0958   3.2190   3.2190
     3.2190   3.2190   3.5685   3.5685   3.5685   3.5685   3.6750   3.6750
     3.6751   3.6751   3.9029   3.9029   3.9029   3.9029   3.9030   3.9030
     3.9030   3.9030   4.4049   4.4049   4.4050   4.4050   4.5707   4.5707
     4.8127   4.8127   4.8127   4.8127   4.8128   4.8128   4.8128   4.8129
     4.8623   4.8623   4.8623   4.8623   4.8623   4.8623   4.8623   4.8623
     5.2089   5.2090   5.2090   5.2090   5.2547   5.2547   5.2547   5.2547
     5.2548   5.2548   5.2548   5.2548   5.3819   5.3819   5.6222   5.6222
     5.6222   5.6222   5.6223   5.6223   5.6223   5.6223   5.6226   5.6226
     5.6229   5.6229   5.6413   5.6413   5.6413   5.6413   5.6423   5.6423
     5.6424   5.6424   5.6530   5.6530   5.6531   5.6531   5.7882   5.7882
     5.7882   5.7882   5.7882   5.7882   5.7882   5.7882   5.8578   5.8579
     5.9312   5.9312   5.9314   5.9314   6.2535   6.2535   6.2536   6.2536
     6.4398   6.4399   6.6489   6.6491   6.7092   6.7095   6.7871   6.7871
     6.7873   6.7873   6.9283   6.9283   6.9283   6.9283   7.1865   7.1865
     7.1866   7.1866   7.1925   7.1925   7.1925   7.1925   7.3355   7.3355
     7.3355   7.3355   7.3586   7.3586   7.3586   7.3586   7.3587   7.3587
     7.3587   7.3587   7.4255   7.4255   7.4255   7.4255   7.5548   7.5548
     7.5639   7.5639   7.5640   7.5640   7.6938   7.6939   7.6939   7.6939
     7.6939   7.6939   7.6939   7.6940   7.7607   7.7607   7.7611   7.7612
     8.0700   8.0700   8.0701   8.0701   8.1298   8.1298   8.1300   8.1300
     8.2155   8.2155   8.2155   8.2155   8.2156   8.2156   8.2156   8.2156
     8.2225   8.2225   8.2226   8.2226   8.4177   8.4177   8.4177   8.4177
     8.4178   8.4178   8.4178   8.4178   8.4972   8.4972   8.4974   8.4974
     8.5245   8.5245   8.5246   8.5247   8.5456   8.5456   8.6490   8.6491
     8.6903   8.6906   8.7140   8.7140   8.7141   8.7141   8.7356   8.7356
     8.7357   8.7357   8.9740   8.9740   8.9740   8.9741   8.9741   8.9741
     8.9741   8.9741   8.9835   8.9835   8.9836   8.9836   8.9837   8.9837
     8.9837   8.9837   9.0339   9.0339   9.0834   9.0834   9.0834   9.0834
     9.1728   9.1728   9.1728   9.1728   9.1886   9.1886   9.1886   9.1886
     9.1886   9.1886   9.1886   9.1886   9.2753   9.2754   9.2754   9.2754
     9.3405   9.3405   9.3406   9.3406   9.4223   9.4223   9.4223   9.4223
     9.4223   9.4223   9.4223   9.4223   9.5128   9.5128   9.5129   9.5129
     9.5205   9.5205   9.5206   9.5206   9.5685   9.5685   9.5685   9.5685
     9.5686   9.5686   9.5686   9.5686   9.6941   9.6943   9.7014   9.7015
     9.8168   9.8168   9.8168   9.8168  10.3169  10.3169

          k = 0.0000-0.3248-0.3248 ( 83080 PWs)   bands (ev):

   -14.2738 -14.2737 -14.2737 -14.2737 -14.2188 -14.2188 -14.2170 -14.2170
   -14.2170 -14.2170 -14.2169 -14.2169 -14.2169 -14.2169 -14.2160 -14.2160
   -14.2160 -14.2159 -14.2159 -14.2159 -14.2159 -14.2159 -14.2159 -14.2159
   -14.2159 -14.2159 -14.2159 -14.2159 -14.2159 -14.2159 -14.2075 -14.2075
   -14.2074 -14.2074 -14.2074 -14.2074 -14.2074 -14.2073 -14.1820 -14.1820
   -14.1819 -14.1819 -14.1809 -14.1809 -14.1808 -14.1808 -14.1808 -14.1808
   -14.1808 -14.1808 -14.1399 -14.1399 -14.1399 -14.1398 -14.0830 -14.0830
   -14.0830 -14.0830 -14.0830 -14.0830 -14.0829 -14.0829 -14.0600 -14.0600
   -14.0599 -14.0599 -14.0187 -14.0187 -14.0187 -14.0187 -14.0187 -14.0187
   -14.0187 -14.0187 -14.0187 -14.0187 -14.0186 -14.0186 -14.0186 -14.0186
   -14.0186 -14.0186 -13.9898 -13.9897 -13.9888 -13.9888 -13.9887 -13.9887
   -13.9887 -13.9887 -13.9887 -13.9887 -13.9879 -13.9879 -13.9879 -13.9879
   -13.9860 -13.9860 -13.9860 -13.9860 -13.9859 -13.9859 -13.9859 -13.9859
   -13.9835 -13.9834 -13.9834 -13.9834 -13.9818 -13.9817 -13.9817 -13.9817
   -13.9772 -13.9772 -13.9714 -13.9714 -13.9714 -13.9714 -13.9714 -13.9714
   -13.9713 -13.9713 -13.9431 -13.9430 -13.9430 -13.9430 -13.9362 -13.9362
   -13.9362 -13.9362 -13.9361 -13.9361 -13.9361 -13.9361 -13.9349 -13.9349
   -13.9349 -13.9349 -13.9348 -13.9348 -13.9348 -13.9348 -13.9348 -13.9348
   -13.9348 -13.9348 -13.9348 -13.9348 -13.9348 -13.9348 -13.9331 -13.9331
   -13.9331 -13.9331 -13.9330 -13.9330 -13.9330 -13.9330 -13.9321 -13.9321
   -13.9320 -13.9320 -13.9220 -13.9220 -13.9220 -13.9220 -13.9219 -13.9219
   -13.9219 -13.9219 -13.9173 -13.9172 -13.9172 -13.9172 -13.9146 -13.9145
   -13.9145 -13.9145 -13.9137 -13.9137 -13.9137 -13.9137 -13.9137 -13.9137
   -13.9137 -13.9137 -13.9137 -13.9137 -13.9137 -13.9137 -13.9136 -13.9136
   -13.9136 -13.9136 -13.9134 -13.9134 -13.9134 -13.9134 -13.9133 -13.9133
   -13.9133 -13.9133 -13.9008 -13.9008 -13.9008 -13.9008 -13.8975 -13.8975
   -13.8975 -13.8975 -13.8975 -13.8975 -13.8974 -13.8974 -13.8965 -13.8965
   -13.8964 -13.8964 -13.8964 -13.8964 -13.8963 -13.8963 -13.8962 -13.8962
   -13.8961 -13.8961 -13.8961 -13.8961 -13.8961 -13.8961 -13.8936 -13.8936
   -13.8910 -13.8910 -13.8887 -13.8887 -13.8886 -13.8886 -13.8881 -13.8881
   -13.8881 -13.8881 -13.8881 -13.8881 -13.8881 -13.8881 -13.8881 -13.8881
   -13.8881 -13.8881 -13.8880 -13.8880 -13.8880 -13.8880 -13.8863 -13.8863
   -13.8862 -13.8862 -13.8862 -13.8862 -13.8862 -13.8862 -13.8861 -13.8860
   -13.8860 -13.8859 -13.8839 -13.8839 -13.8838 -13.8838 -10.0189 -10.0189
   -10.0189 -10.0188  -9.1324  -9.1324  -9.1324  -9.1324  -9.1323  -9.1323
    -9.1322  -9.1322  -8.9960  -8.9960  -8.9959  -8.9959  -8.9959  -8.9959
    -8.9958  -8.9958  -8.6661  -8.6661  -8.3249  -8.3249  -8.3249  -8.3248
    -8.3248  -8.3248  -8.3248  -8.3248  -8.3248  -8.3247  -8.3247  -8.3247
    -8.3247  -8.3247  -8.3247  -8.3247  -8.0923  -8.0923  -8.0923  -8.0923
    -7.9327  -7.9327  -7.9327  -7.9327  -7.6327  -7.6326  -7.5304  -7.5304
    -7.5303  -7.5303  -7.5303  -7.5303  -7.5303  -7.5303  -7.4838  -7.4838
    -7.4837  -7.4837  -6.9769  -6.9769  -6.9769  -6.9768  -6.9768  -6.9768
    -6.9767  -6.9767  -6.8332  -6.8332  -6.8331  -6.8331  -6.7162  -6.7161
    -6.7161  -6.7161  -6.7161  -6.7161  -6.7161  -6.7161  -6.5792  -6.5792
    -6.5792  -6.5792  -6.5791  -6.5791  -6.5791  -6.5791  -6.5791  -6.5791
    -6.5791  -6.5791  -6.5790  -6.5790  -6.5790  -6.5790  -6.5531  -6.5531
    -6.5531  -6.5530  -6.5070  -6.5070  -6.5070  -6.5070  -6.5070  -6.5070
    -6.5070  -6.5070   0.8594   0.8594   0.8594   0.8594   0.8594   0.8594
     0.8595   0.8595   0.8961   0.8962   0.8962   0.8962   1.2666   1.2666
     1.2667   1.2667   1.7988   1.7988   1.7988   1.7988   1.7988   1.7988
     1.7988   1.7988   1.7989   1.7989   1.7989   1.7989   1.7990   1.7990
     1.7990   1.7990   2.5049   2.5049   2.5049   2.5049   2.5049   2.5049
     2.5050   2.5050   3.0232   3.0232   3.0232   3.0232   3.0232   3.0232
     3.0232   3.0232   3.4801   3.4801   3.9783   3.9783   3.9783   3.9783
     3.9783   3.9783   3.9784   3.9784   4.2336   4.2336   4.2336   4.2336
     4.2337   4.2337   4.2337   4.2337   4.2337   4.2337   4.2337   4.2337
     4.2338   4.2338   4.2338   4.2338   4.4267   4.4267   4.4267   4.4267
     4.7480   4.7480   4.7481   4.7481   5.2390   5.2390   5.2390   5.2390
     5.3455   5.3455   5.3455   5.3455   5.3456   5.3456   5.3456   5.3456
     5.4223   5.4223   5.4223   5.4223   5.4224   5.4224   5.4224   5.4224
     5.4405   5.4405   5.4405   5.4405   5.4405   5.4405   5.4405   5.4405
     5.4407   5.4407   5.4407   5.4407   5.4407   5.4407   5.4407   5.4407
     5.5638   5.5639   5.9622   5.9623   5.9623   5.9624   6.2007   6.2007
     6.2007   6.2007   6.2008   6.2008   6.2008   6.2008   6.3319   6.3319
     6.3319   6.3320   6.3320   6.3320   6.3320   6.3320   6.4778   6.4779
     6.4779   6.4779   6.4781   6.4781   6.4781   6.4782   6.5946   6.5946
     6.5946   6.5946   6.6436   6.6436   6.6437   6.6437   6.6926   6.6926
     6.6927   6.6927   6.6928   6.6929   6.6929   6.6929   6.8227   6.8227
     6.8228   6.8228   6.8407   6.8408   7.5997   7.5997   7.5998   7.5998
     7.7378   7.7379   7.7379   7.7379   7.7803   7.7803   7.7803   7.7803
     7.7803   7.7803   7.7804   7.7804   7.8464   7.8464   7.8465   7.8465
     7.8466   7.8466   7.8466   7.8467   7.9368   7.9368   7.9368   7.9368
     7.9368   7.9368   7.9368   7.9368   8.2092   8.2092   8.2092   8.2092
     8.2092   8.2092   8.2092   8.2092   8.2093   8.2093   8.2093   8.2093
     8.2093   8.2093   8.2093   8.2094   8.2299   8.2300   8.4161   8.4162
     8.4911   8.4911   8.4913   8.4913   8.6307   8.6308   8.6308   8.6308
     8.6310   8.6310   8.6311   8.6311   8.6670   8.6670   8.6670   8.6670
     8.6851   8.6851   8.6851   8.6851   8.6852   8.6852   8.6852   8.6852
     8.6852   8.6852   8.6852   8.6852   8.6853   8.6853   8.6853   8.6853
     8.7079   8.7079   8.7080   8.7080   9.0715   9.0716   9.0793   9.0793
     9.0793   9.0793   9.0794   9.0794   9.0794   9.0794   9.1744   9.1744
     9.1745   9.1745   9.1745   9.1745   9.1745   9.1745   9.3075   9.3075
     9.3075   9.3075   9.3113   9.3113   9.3114   9.3114   9.3757   9.3757
     9.3757   9.3757   9.3758   9.3758   9.3758   9.3758   9.3758   9.3758
     9.3758   9.3758   9.3758   9.3758   9.3758   9.3758   9.5522   9.5522
     9.5523   9.5523   9.5523   9.5523   9.5523   9.5523   9.5643   9.5643
     9.5643   9.5643   9.5644   9.5644   9.5645   9.5645   9.5923   9.5923
     9.5923   9.5924  10.1726  10.1727  10.1727  10.1727

          k = 0.3333 0.0000 0.0000 ( 83060 PWs)   bands (ev):

   -14.2713 -14.2689 -14.2689 -14.2688 -14.2688 -14.2642 -14.2642 -14.2642
   -14.2642 -14.2598 -14.2598 -14.2598 -14.2598 -14.2372 -14.2372 -14.2371
   -14.2371 -14.2316 -14.2315 -14.2263 -14.2262 -14.2262 -14.2262 -14.2064
   -14.2064 -14.2064 -14.2064 -14.1999 -14.1858 -14.1858 -14.1858 -14.1858
   -14.1640 -14.1639 -14.1639 -14.1639 -14.1618 -14.1618 -14.1618 -14.1617
   -14.1374 -14.1374 -14.1374 -14.1374 -14.1370 -14.1370 -14.1370 -14.1370
   -14.1186 -14.1186 -14.1185 -14.1185 -14.0996 -14.0996 -14.0987 -14.0964
   -14.0964 -14.0963 -14.0963 -14.0674 -14.0674 -14.0674 -14.0674 -14.0523
   -14.0523 -14.0523 -14.0523 -14.0476 -14.0321 -14.0321 -14.0320 -14.0320
   -14.0308 -14.0308 -14.0308 -14.0308 -14.0299 -14.0199 -14.0199 -14.0199
   -14.0199 -14.0196 -14.0195 -14.0183 -14.0183 -14.0183 -14.0183 -14.0183
   -14.0182 -14.0182 -14.0182 -14.0172 -14.0171 -14.0171 -14.0171 -14.0083
   -14.0028 -14.0028 -14.0028 -14.0027 -13.9944 -13.9944 -13.9944 -13.9944
   -13.9829 -13.9829 -13.9829 -13.9829 -13.9821 -13.9667 -13.9667 -13.9667
   -13.9667 -13.9663 -13.9663 -13.9663 -13.9663 -13.9580 -13.9565 -13.9564
   -13.9564 -13.9564 -13.9496 -13.9496 -13.9496 -13.9496 -13.9491 -13.9491
   -13.9491 -13.9491 -13.9480 -13.9480 -13.9480 -13.9480 -13.9471 -13.9471
   -13.9470 -13.9470 -13.9451 -13.9451 -13.9450 -13.9450 -13.9433 -13.9432
   -13.9432 -13.9432 -13.9427 -13.9427 -13.9427 -13.9427 -13.9405 -13.9404
   -13.9380 -13.9380 -13.9380 -13.9380 -13.9365 -13.9365 -13.9365 -13.9364
   -13.9282 -13.9244 -13.9215 -13.9214 -13.9177 -13.9176 -13.9176 -13.9176
   -13.9161 -13.9161 -13.9161 -13.9161 -13.9158 -13.9149 -13.9148 -13.9148
   -13.9148 -13.9122 -13.9122 -13.9122 -13.9122 -13.9098 -13.9086 -13.9086
   -13.9086 -13.9086 -13.9017 -13.9016 -13.9013 -13.9013 -13.9012 -13.9012
   -13.9009 -13.9009 -13.9008 -13.9008 -13.9007 -13.9007 -13.9007 -13.9007
   -13.8994 -13.8994 -13.8994 -13.8994 -13.8991 -13.8991 -13.8991 -13.8991
   -13.8985 -13.8947 -13.8947 -13.8947 -13.8946 -13.8935 -13.8931 -13.8931
   -13.8930 -13.8930 -13.8927 -13.8927 -13.8927 -13.8927 -13.8921 -13.8921
   -13.8921 -13.8921 -13.8916 -13.8916 -13.8916 -13.8916 -13.8903 -13.8903
   -13.8903 -13.8903 -13.8894 -13.8894 -13.8894 -13.8894 -13.8881 -13.8881
   -13.8881 -13.8881 -13.8880 -13.8875 -13.8872 -13.8872 -13.8872 -13.8872
   -13.8868 -13.8868 -13.8868 -13.8868 -13.8867 -13.8867 -13.8867 -13.8867
   -13.8865 -13.8865 -13.8865 -13.8865 -13.8859 -13.8859 -13.8859 -13.8859
   -13.8846 -13.8846 -13.8846 -13.8846 -13.8833 -13.8829 -10.1349  -9.7695
    -9.6688  -9.6688  -9.6688  -9.6688  -9.3270  -9.3270  -9.3270  -9.3270
    -9.2313  -9.2313  -9.2313  -9.2313  -8.9255  -8.9255  -8.9255  -8.9255
    -8.4592  -8.4444  -8.4444  -8.4444  -8.4444  -8.3931  -8.3931  -8.3930
    -8.3930  -8.2436  -8.2436  -8.2436  -8.2436  -8.1841  -8.1841  -8.1841
    -8.1840  -8.1760  -8.1760  -8.1759  -8.1759  -8.0615  -8.0615  -8.0615
    -8.0615  -7.8558  -7.8558  -7.8558  -7.8558  -7.8493  -7.8493  -7.8493
    -7.8493  -7.7276  -7.4669  -7.4669  -7.4669  -7.4669  -7.3208  -7.3208
    -7.1623  -7.1623  -7.1622  -7.1622  -7.0284  -7.0283  -7.0179  -7.0178
    -7.0178  -7.0178  -6.9040  -6.9040  -6.9040  -6.9040  -6.8622  -6.8011
    -6.8011  -6.8011  -6.8011  -6.7549  -6.7447  -6.7447  -6.7447  -6.7446
    -6.5560  -6.5560  -6.5560  -6.5560  -6.5393  -6.5393  -6.5392  -6.5392
    -6.5348  -6.5348  -6.5348  -6.5348  -6.5052  -6.5052  -6.5052  -6.5052
    -6.5028  -6.5028  -6.5028  -6.5028  -6.4741  -6.4741  -6.4741  -6.4741
    -6.4331  -6.4330   0.3947   0.4246   0.7556   0.7556   0.7556   0.7556
     0.9532   1.2356   1.2356   1.2357   1.2357   1.3277   1.3277   1.3277
     1.3277   1.3614   1.3615   1.3615   1.3615   1.3915   1.3916   1.3916
     1.3916   1.8784   1.8784   1.8785   1.8785   1.8788   1.8788   1.8789
     1.8789   1.9340   2.1893   2.1893   2.1893   2.1893   2.6568   2.6568
     2.6569   2.6569   3.3901   3.3902   3.3902   3.3902   3.4931   3.4931
     3.4931   3.4931   3.6191   3.6191   3.6192   3.6192   3.8615   3.8615
     3.8615   3.8615   4.0524   4.0524   4.0524   4.0524   4.2316   4.2316
     4.2316   4.2316   4.2769   4.2769   4.2770   4.2770   4.3370   4.3370
     4.3371   4.3372   4.5210   4.5210   4.5210   4.5210   4.7115   4.7115
     4.7116   4.7116   4.9014   4.9014   4.9014   4.9014   4.9797   4.9799
     5.0481   5.0972   5.0972   5.0972   5.0972   5.1021   5.1021   5.1021
     5.1021   5.1087   5.1297   5.1297   5.1297   5.1297   5.2221   5.3532
     5.3532   5.4830   5.5462   5.5462   5.5463   5.5463   5.7151   5.7152
     5.7822   5.7886   5.7886   5.7887   5.7887   5.8244   5.8244   5.8245
     5.8245   5.9367   5.9367   5.9368   5.9368   5.9830   5.9830   5.9830
     5.9830   6.1915   6.1916   6.1916   6.1916   6.3140   6.3677   6.3677
     6.3677   6.3677   6.4327   6.4327   6.4327   6.4327   6.6297   6.6297
     6.6297   6.6297   6.6756   6.7078   6.7078   6.7079   6.7079   6.7317
     6.7317   6.7317   6.7317   6.7596   6.7770   6.7770   6.7770   6.7770
     6.8111   6.8112   6.8330   6.8330   6.9112   6.9112   6.9112   6.9112
     6.9259   7.1582   7.1582   7.1582   7.1582   7.1605   7.1606   7.1606
     7.1606   7.3745   7.4121   7.4121   7.4121   7.4121   7.4592   7.4592
     7.4592   7.4592   7.7842   7.7842   7.7842   7.7842   7.7965   7.7965
     7.7965   7.7965   7.8635   7.8636   7.8636   7.8636   7.9312   7.9312
     7.9312   7.9312   7.9478   7.9479   7.9693   7.9967   7.9967   7.9967
     7.9967   8.1113   8.1113   8.1113   8.1113   8.2338   8.2338   8.2338
     8.2338   8.2344   8.2344   8.2344   8.2344   8.2462   8.2462   8.2462
     8.2462   8.3092   8.3092   8.3092   8.3092   8.4071   8.4071   8.4071
     8.4071   8.4956   8.4956   8.4956   8.4956   8.5765   8.5765   8.5766
     8.5766   8.6543   8.6543   8.6544   8.6544   8.7454   8.7640   8.7640
     8.8646   8.8646   8.8647   8.8647   8.8782   8.8782   8.8782   8.8782
     8.8979   8.8979   8.8980   8.8980   8.9869   8.9869   8.9869   8.9869
     8.9916   8.9916   8.9916   8.9916   8.9991   8.9991   8.9991   8.9991
     9.0337   9.0337   9.0337   9.0337   9.1444   9.1444   9.1444   9.1445
     9.1731   9.1731   9.1731   9.1731   9.3021   9.3022   9.3022   9.3022
     9.3068   9.3068   9.3068   9.3068   9.3684   9.3684   9.3684   9.3684
     9.3693   9.3693   9.3693   9.3693   9.4962   9.4962   9.6089   9.6089
     9.6089   9.6089   9.6808   9.6808   9.6880   9.6880   9.6881   9.6881
     9.7476   9.7476   9.7476   9.7476   9.8145   9.8145   9.8145   9.8145
     9.9194   9.9194   9.9194   9.9194  10.0258  10.3767

          k = 0.3333 0.0000-0.3248 ( 83068 PWs)   bands (ev):

   -14.2746 -14.2746 -14.2726 -14.2726 -14.2725 -14.2725 -14.2584 -14.2583
   -14.2496 -14.2496 -14.2496 -14.2495 -14.2460 -14.2460 -14.2460 -14.2459
   -14.2447 -14.2447 -14.2412 -14.2411 -14.2221 -14.2221 -14.2220 -14.2220
   -14.1960 -14.1959 -14.1861 -14.1860 -14.1860 -14.1860 -14.1836 -14.1836
   -14.1802 -14.1802 -14.1801 -14.1801 -14.1652 -14.1652 -14.1445 -14.1445
   -14.1444 -14.1444 -14.1411 -14.1411 -14.1411 -14.1411 -14.1294 -14.1294
   -14.1294 -14.1294 -14.1106 -14.1106 -14.1051 -14.1050 -14.0872 -14.0871
   -14.0778 -14.0778 -14.0777 -14.0777 -14.0763 -14.0762 -14.0762 -14.0762
   -14.0478 -14.0478 -14.0353 -14.0353 -14.0352 -14.0352 -14.0322 -14.0322
   -14.0287 -14.0286 -14.0209 -14.0208 -14.0198 -14.0197 -14.0197 -14.0197
   -14.0197 -14.0197 -14.0197 -14.0197 -14.0188 -14.0188 -14.0178 -14.0178
   -14.0178 -14.0177 -14.0177 -14.0177 -14.0176 -14.0176 -14.0175 -14.0175
   -14.0170 -14.0170 -14.0170 -14.0169 -13.9984 -13.9984 -13.9851 -13.9850
   -13.9817 -13.9817 -13.9816 -13.9816 -13.9767 -13.9767 -13.9702 -13.9702
   -13.9702 -13.9702 -13.9638 -13.9637 -13.9637 -13.9636 -13.9603 -13.9602
   -13.9554 -13.9554 -13.9513 -13.9513 -13.9512 -13.9512 -13.9487 -13.9486
   -13.9486 -13.9486 -13.9479 -13.9479 -13.9479 -13.9479 -13.9463 -13.9462
   -13.9462 -13.9462 -13.9441 -13.9440 -13.9434 -13.9434 -13.9433 -13.9433
   -13.9431 -13.9431 -13.9423 -13.9423 -13.9422 -13.9422 -13.9419 -13.9418
   -13.9394 -13.9394 -13.9360 -13.9360 -13.9360 -13.9360 -13.9326 -13.9326
   -13.9317 -13.9317 -13.9176 -13.9176 -13.9166 -13.9165 -13.9161 -13.9160
   -13.9160 -13.9159 -13.9158 -13.9158 -13.9157 -13.9157 -13.9147 -13.9147
   -13.9130 -13.9129 -13.9119 -13.9119 -13.9119 -13.9118 -13.9070 -13.9070
   -13.9060 -13.9060 -13.9059 -13.9059 -13.9042 -13.9041 -13.9018 -13.9018
   -13.9018 -13.9018 -13.9016 -13.9016 -13.9010 -13.9009 -13.8995 -13.8995
   -13.8995 -13.8994 -13.8990 -13.8990 -13.8990 -13.8990 -13.8954 -13.8954
   -13.8953 -13.8953 -13.8952 -13.8952 -13.8944 -13.8943 -13.8938 -13.8937
   -13.8931 -13.8930 -13.8930 -13.8929 -13.8919 -13.8919 -13.8916 -13.8916
   -13.8916 -13.8916 -13.8912 -13.8912 -13.8912 -13.8911 -13.8894 -13.8894
   -13.8894 -13.8893 -13.8893 -13.8893 -13.8893 -13.8892 -13.8888 -13.8888
   -13.8888 -13.8888 -13.8881 -13.8880 -13.8880 -13.8879 -13.8878 -13.8878
   -13.8878 -13.8878 -13.8877 -13.8876 -13.8872 -13.8871 -13.8871 -13.8871
   -13.8863 -13.8863 -13.8862 -13.8862 -13.8862 -13.8861 -13.8857 -13.8856
   -13.8847 -13.8847 -13.8847 -13.8847 -13.8832 -13.8832 -10.0162 -10.0161
    -9.6565  -9.6564  -9.5547  -9.5547  -9.5547  -9.5547  -9.2214  -9.2214
    -9.2213  -9.2213  -9.1243  -9.1241  -8.8131  -8.8130  -8.7712  -8.7711
    -8.7710  -8.7710  -8.5150  -8.5150  -8.5149  -8.5149  -8.4013  -8.4013
    -8.3880  -8.3880  -8.3880  -8.3880  -8.1918  -8.1918  -8.1917  -8.1917
    -8.1423  -8.1423  -8.1422  -8.1422  -8.0367  -8.0367  -7.9224  -7.9224
    -7.9223  -7.9223  -7.8460  -7.8460  -7.8459  -7.8459  -7.7553  -7.7552
    -7.7432  -7.7432  -7.5152  -7.5152  -7.2760  -7.2760  -7.2759  -7.2759
    -7.2375  -7.2374  -7.2186  -7.2186  -7.2186  -7.2186  -7.0270  -7.0270
    -7.0269  -7.0268  -6.9687  -6.9687  -6.9687  -6.9687  -6.9646  -6.9646
    -6.7466  -6.7465  -6.6312  -6.6312  -6.6311  -6.6311  -6.6117  -6.6116
    -6.5920  -6.5920  -6.5848  -6.5847  -6.5545  -6.5544  -6.5544  -6.5543
    -6.5468  -6.5468  -6.5468  -6.5468  -6.5124  -6.5124  -6.5123  -6.5123
    -6.5059  -6.5058  -6.4954  -6.4954  -6.4954  -6.4954  -6.4605  -6.4604
    -6.4441  -6.4441   0.6515   0.6516   0.6611   0.6612   0.8187   0.8188
     0.8188   0.8189   1.0511   1.0511   1.0512   1.0512   1.0736   1.0737
     1.5137   1.5137   1.5138   1.5138   1.5696   1.5696   1.5696   1.5696
     1.7337   1.7337   1.7798   1.7798   1.7799   1.7799   1.9171   1.9171
     2.2768   2.2768   2.2769   2.2769   2.3164   2.3165   2.3955   2.3955
     2.9144   2.9144   2.9145   2.9145   3.1332   3.1332   3.1332   3.1332
     3.4992   3.4992   3.4992   3.4992   3.6177   3.6177   3.8333   3.8333
     3.8334   3.8334   4.1905   4.1905   4.1906   4.1906   4.2263   4.2265
     4.4538   4.4539   4.4539   4.4539   4.5344   4.5345   4.5882   4.5882
     4.6002   4.6002   4.6003   4.6003   4.6770   4.6770   4.6771   4.6771
     4.6792   4.6792   4.7883   4.7883   4.8177   4.8177   4.9793   4.9793
     4.9794   4.9794   5.0297   5.0297   5.0821   5.0821   5.1147   5.1148
     5.1330   5.1330   5.2436   5.2436   5.2782   5.2782   5.2782   5.2782
     5.3338   5.3338   5.3339   5.3339   5.4314   5.4317   5.6280   5.6280
     5.6281   5.6282   5.6944   5.6944   5.6945   5.6945   5.7852   5.7852
     5.7852   5.7852   5.9544   5.9544   5.9544   5.9544   5.9978   5.9979
     6.0704   6.0705   6.0705   6.0706   6.2144   6.2144   6.2145   6.2145
     6.3707   6.3708   6.4692   6.4692   6.4693   6.4693   6.5053   6.5054
     6.5385   6.5385   6.5450   6.5450   6.5450   6.5451   6.5560   6.5561
     6.5710   6.5713   6.7670   6.7671   6.8807   6.8807   6.8810   6.8810
     7.1044   7.1044   7.1045   7.1045   7.1310   7.1310   7.1310   7.1310
     7.2724   7.2724   7.3088   7.3089   7.4000   7.4001   7.4097   7.4097
     7.4098   7.4098   7.4134   7.4134   7.4429   7.4429   7.4432   7.4432
     7.5298   7.5298   7.5298   7.5299   7.5477   7.5477   7.6609   7.6610
     7.7521   7.7521   7.7522   7.7522   7.8346   7.8347   7.8897   7.8897
     7.8897   7.8897   7.9022   7.9023   8.0057   8.0057   8.0058   8.0058
     8.0274   8.0275   8.0609   8.0609   8.1327   8.1327   8.1502   8.1502
     8.1503   8.1503   8.2200   8.2200   8.2200   8.2200   8.2794   8.2796
     8.3485   8.3485   8.3801   8.3801   8.3802   8.3802   8.4472   8.4472
     8.4473   8.4473   8.4644   8.4645   8.5512   8.5512   8.5513   8.5513
     8.7073   8.7073   8.7075   8.7075   8.7114   8.7114   8.7115   8.7115
     8.7501   8.7501   8.7527   8.7528   8.8688   8.8688   8.8688   8.8688
     8.8695   8.8696   8.8698   8.8698   8.9270   8.9271   8.9271   8.9271
     8.9423   8.9423   9.0121   9.0121   9.0121   9.0122   9.0426   9.0426
     9.0529   9.0529   9.0530   9.0530   9.2344   9.2345   9.2402   9.2402
     9.2403   9.2403   9.3165   9.3165   9.3454   9.3454   9.3454   9.3455
     9.3788   9.3788   9.3789   9.3789   9.3797   9.3797   9.3977   9.3977
     9.3977   9.3977   9.4543   9.4543   9.4779   9.4781   9.4861   9.4861
     9.4862   9.4862   9.5003   9.5003   9.5003   9.5003   9.6316   9.6318
     9.6579   9.6579   9.8255   9.8255   9.8256   9.8256   9.8813   9.8813
     9.8814   9.8814   9.9967   9.9968  10.2554  10.2555

          k = 0.3333-0.3248-0.3248 ( 83032 PWs)   bands (ev):

   -14.2666 -14.2666 -14.2665 -14.2665 -14.2665 -14.2665 -14.2665 -14.2665
   -14.2625 -14.2625 -14.2625 -14.2624 -14.2487 -14.2486 -14.2486 -14.2486
   -14.2419 -14.2418 -14.2325 -14.2325 -14.2324 -14.2324 -14.1941 -14.1941
   -14.1941 -14.1940 -14.1868 -14.1867 -14.1819 -14.1819 -14.1819 -14.1819
   -14.1819 -14.1819 -14.1818 -14.1818 -14.1573 -14.1573 -14.1573 -14.1573
   -14.1573 -14.1573 -14.1573 -14.1572 -14.1200 -14.1199 -14.1164 -14.1163
   -14.1163 -14.1162 -14.1041 -14.1041 -14.1041 -14.1040 -14.0973 -14.0973
   -14.0972 -14.0972 -14.0933 -14.0933 -14.0543 -14.0543 -14.0543 -14.0543
   -14.0542 -14.0542 -14.0542 -14.0542 -14.0364 -14.0364 -14.0352 -14.0351
   -14.0351 -14.0351 -14.0293 -14.0292 -14.0292 -14.0292 -14.0192 -14.0192
   -14.0192 -14.0192 -14.0183 -14.0183 -14.0182 -14.0182 -14.0171 -14.0171
   -14.0167 -14.0167 -14.0167 -14.0167 -14.0167 -14.0167 -14.0166 -14.0166
   -13.9927 -13.9927 -13.9926 -13.9926 -13.9926 -13.9926 -13.9926 -13.9926
   -13.9890 -13.9889 -13.9889 -13.9889 -13.9749 -13.9749 -13.9748 -13.9748
   -13.9660 -13.9660 -13.9588 -13.9588 -13.9587 -13.9587 -13.9587 -13.9587
   -13.9587 -13.9587 -13.9557 -13.9556 -13.9556 -13.9556 -13.9487 -13.9486
   -13.9459 -13.9459 -13.9447 -13.9447 -13.9447 -13.9447 -13.9447 -13.9447
   -13.9446 -13.9446 -13.9442 -13.9442 -13.9442 -13.9442 -13.9442 -13.9441
   -13.9441 -13.9441 -13.9424 -13.9424 -13.9424 -13.9424 -13.9411 -13.9411
   -13.9411 -13.9411 -13.9385 -13.9384 -13.9384 -13.9384 -13.9343 -13.9343
   -13.9343 -13.9342 -13.9192 -13.9192 -13.9192 -13.9191 -13.9146 -13.9146
   -13.9145 -13.9145 -13.9145 -13.9145 -13.9145 -13.9145 -13.9123 -13.9122
   -13.9115 -13.9114 -13.9114 -13.9114 -13.9096 -13.9096 -13.9096 -13.9095
   -13.9015 -13.9015 -13.9014 -13.9014 -13.9007 -13.9007 -13.9007 -13.9006
   -13.8997 -13.8996 -13.8996 -13.8996 -13.8996 -13.8996 -13.8996 -13.8995
   -13.8995 -13.8995 -13.8995 -13.8995 -13.8990 -13.8989 -13.8965 -13.8965
   -13.8959 -13.8959 -13.8958 -13.8958 -13.8928 -13.8928 -13.8928 -13.8928
   -13.8928 -13.8928 -13.8928 -13.8928 -13.8928 -13.8927 -13.8927 -13.8927
   -13.8914 -13.8914 -13.8914 -13.8913 -13.8913 -13.8913 -13.8912 -13.8912
   -13.8912 -13.8911 -13.8904 -13.8904 -13.8904 -13.8903 -13.8895 -13.8894
   -13.8884 -13.8884 -13.8884 -13.8884 -13.8884 -13.8883 -13.8883 -13.8883
   -13.8880 -13.8880 -13.8880 -13.8880 -13.8880 -13.8880 -13.8879 -13.8879
   -13.8854 -13.8854 -13.8854 -13.8854 -13.8854 -13.8853 -13.8846 -13.8846
   -13.8846 -13.8846 -13.8846 -13.8846 -13.8845 -13.8845  -9.8981  -9.8980
    -9.8980  -9.8979  -9.5448  -9.5447  -9.5447  -9.5446  -9.0245  -9.0245
    -9.0245  -9.0244  -9.0244  -9.0244  -9.0243  -9.0243  -8.7266  -8.7266
    -8.7265  -8.7265  -8.7265  -8.7265  -8.7264  -8.7264  -8.5880  -8.5880
    -8.3733  -8.3732  -8.3445  -8.3444  -8.3444  -8.3443  -8.0000  -8.0000
    -7.9999  -7.9999  -7.9999  -7.9999  -7.9999  -7.9999  -7.8815  -7.8814
    -7.8482  -7.8482  -7.8481  -7.8481  -7.7723  -7.7722  -7.7722  -7.7722
    -7.6496  -7.6496  -7.6496  -7.6495  -7.5147  -7.5146  -7.3702  -7.3702
    -7.3701  -7.3701  -7.2060  -7.2060  -7.0734  -7.0734  -7.0734  -7.0734
    -6.9066  -6.9066  -6.9065  -6.9065  -6.9065  -6.9065  -6.9064  -6.9064
    -6.7377  -6.7377  -6.7377  -6.7376  -6.7376  -6.7376  -6.7375  -6.7375
    -6.5741  -6.5740  -6.5360  -6.5359  -6.5359  -6.5359  -6.5206  -6.5206
    -6.5205  -6.5205  -6.5205  -6.5205  -6.5204  -6.5204  -6.5121  -6.5121
    -6.5121  -6.5120  -6.4703  -6.4703  -6.4702  -6.4702  -6.4690  -6.4690
    -6.4690  -6.4690   0.6182   0.6183   0.8860   0.8861   0.8861   0.8861
     0.9029   0.9030   0.9030   0.9030   1.0153   1.0153   1.0153   1.0154
     1.3366   1.3366   1.3366   1.3366   1.3367   1.3367   1.3367   1.3367
     1.9831   1.9831   1.9831   1.9832   2.2639   2.2640   2.3396   2.3397
     2.3397   2.3397   2.3397   2.3397   2.3398   2.3398   2.5054   2.5054
     2.5054   2.5054   2.5054   2.5054   2.5055   2.5055   3.1435   3.1436
     3.8620   3.8620   3.8620   3.8620   4.0359   4.0359   4.0359   4.0359
     4.0727   4.0727   4.0727   4.0727   4.0727   4.0727   4.0728   4.0728
     4.0910   4.0911   4.2676   4.2676   4.2676   4.2676   4.5664   4.5664
     4.5664   4.5664   4.5666   4.5666   4.5666   4.5666   4.7119   4.7119
     4.7120   4.7120   4.7851   4.7851   4.7852   4.7852   4.8035   4.8036
     4.8036   4.8036   5.0718   5.0718   5.0719   5.0719   5.0719   5.0719
     5.0720   5.0720   5.3763   5.3763   5.3763   5.3763   5.4986   5.4986
     5.4987   5.4987   5.4989   5.4989   5.4989   5.4989   5.6748   5.6748
     5.7145   5.7145   5.7693   5.7693   5.7693   5.7693   5.8169   5.8170
     5.8170   5.8170   5.8733   5.8733   5.8733   5.8734   6.0368   6.0368
     6.0369   6.0369   6.2904   6.2904   6.3076   6.3076   6.3077   6.3077
     6.3764   6.3764   6.3765   6.3765   6.3766   6.3766   6.3767   6.3767
     6.4001   6.4001   6.4002   6.4002   6.6766   6.6766   6.6766   6.6767
     6.7381   6.7382   6.7719   6.7719   6.8427   6.8427   6.8427   6.8427
     6.8874   6.8874   6.8875   6.8875   6.9160   6.9161   6.9548   6.9548
     7.1703   7.1704   7.1704   7.1704   7.1706   7.1706   7.1706   7.1706
     7.2553   7.2554   7.4628   7.4628   7.4629   7.4629   7.7199   7.7199
     7.7200   7.7200   7.7201   7.7201   7.7201   7.7202   7.8401   7.8401
     7.8401   7.8402   7.9655   7.9655   7.9656   7.9656   7.9968   7.9968
     7.9968   7.9968   8.0389   8.0389   8.0389   8.0389   8.0389   8.0389
     8.0390   8.0390   8.1099   8.1099   8.1100   8.1100   8.1100   8.1100
     8.1100   8.1100   8.1444   8.1444   8.1445   8.1445   8.2147   8.2147
     8.2148   8.2148   8.3053   8.3053   8.3053   8.3054   8.5096   8.5096
     8.5097   8.5097   8.5097   8.5098   8.5098   8.5098   8.5185   8.5185
     8.5185   8.5185   8.5187   8.5187   8.5188   8.5188   8.7250   8.7250
     8.7251   8.7251   8.8004   8.8004   8.8004   8.8004   8.9321   8.9321
     8.9322   8.9322   8.9322   8.9322   8.9322   8.9322   9.0026   9.0026
     9.0549   9.0549   9.0550   9.0550   9.0869   9.0870   9.0870   9.0870
     9.1094   9.1095   9.2022   9.2023   9.2040   9.2041   9.2439   9.2439
     9.2439   9.2439   9.2594   9.2594   9.2595   9.2595   9.2595   9.2595
     9.2595   9.2595   9.2934   9.2935   9.3769   9.3769   9.4453   9.4454
     9.4454   9.4454   9.5174   9.5174   9.5175   9.5175   9.5175   9.5175
     9.5175   9.5175   9.5781   9.5781   9.5781   9.5781   9.5878   9.5878
     9.5878   9.5878   9.5879   9.5879   9.5879   9.5879   9.9747   9.9747
     9.9747   9.9748  10.1644  10.1645  10.1645  10.1645

     highest occupied level (ev):    10.4931

!    total energy              =  -13225.90725743 Ry
     estimated scf accuracy    <          5.5E-09 Ry

     The total energy is the sum of the following terms:
     one-electron contribution =   -4400.32380511 Ry
     hartree contribution      =    3316.27340706 Ry
     xc contribution           =   -3278.83845017 Ry
     ewald contribution        =   -8863.01840921 Ry

     convergence has been achieved in  13 iterations

     Forces acting on atoms (cartesian axes, Ry/au):

     atom    1 type  1   force =     0.00004422   -0.00000538   -0.00000538
     atom    2 type  1   force =     0.00004250   -0.00000863   -0.00000863
     atom    3 type  1   force =     0.00003408   -0.00000948   -0.00000948
     atom    4 type  1   force =     0.00004115    0.00000972   -0.00000090
     atom    5 type  1   force =     0.00004195    0.00001000   -0.00000352
     atom    6 type  1   force =     0.00003803    0.00001357    0.00000133
     atom    7 type  1   force =     0.00003912    0.00004650   -0.00000395
     atom    8 type  1   force =     0.00004454    0.00004430   -0.00000342
     atom    9 type  1   force =     0.00003629    0.00004367   -0.00000264
     atom   10 type  1   force =     0.00004115   -0.00000090    0.00000972
     atom   11 type  1   force =     0.00004195   -0.00000352    0.00001000
     atom   12 type  1   force =     0.00003803    0.00000133    0.00001357
     atom   13 type  1   force =     0.00003585    0.00001866    0.00001866
     atom   14 type  1   force =     0.00004141    0.00002101    0.00002101
     atom   15 type  1   force =     0.00004479    0.00002067    0.00002067
     atom   16 type  1   force =     0.00003786    0.00003116    0.00002177
     atom   17 type  1   force =     0.00003964    0.00003156    0.00002114
     atom   18 type  1   force =     0.00004257    0.00002776    0.00001722
     atom   19 type  1   force =     0.00003912   -0.00000395    0.00004650
     atom   20 type  1   force =     0.00004454   -0.00000342    0.00004430
     atom   21 type  1   force =     0.00003629   -0.00000264    0.00004367
     atom   22 type  1   force =     0.00003786    0.00002177    0.00003116
     atom   23 type  1   force =     0.00003964    0.00002114    0.00003156
     atom   24 type  1   force =     0.00004257    0.00001722    0.00002776
     atom   25 type  1   force =     0.00004172    0.00003746    0.00003746
     atom   26 type  1   force =     0.00003783    0.00003806    0.00003806
     atom   27 type  1   force =     0.00004080    0.00003877    0.00003877
     atom   28 type  1   force =    -0.00005970    0.00001959    0.00001959
     atom   29 type  1   force =    -0.00005290    0.00001984    0.00001984
     atom   30 type  1   force =    -0.00005577    0.00002087    0.00002087
     atom   31 type  1   force =    -0.00005911   -0.00002531    0.00001049
     atom   32 type  1   force =    -0.00005119   -0.00002453    0.00001636
     atom   33 type  1   force =    -0.00005911   -0.00002700    0.00001538
     atom   34 type  1   force =    -0.00005765    0.00003794    0.00001471
     atom   35 type  1   force =    -0.00005468    0.00003661    0.00001308
     atom   36 type  1   force =    -0.00005714    0.00003827    0.00001877
     atom   37 type  1   force =    -0.00005911    0.00001049   -0.00002531
     atom   38 type  1   force =    -0.00005119    0.00001636   -0.00002453
     atom   39 type  1   force =    -0.00005911    0.00001538   -0.00002700
     atom   40 type  1   force =    -0.00005845   -0.00001303   -0.00001303
     atom   41 type  1   force =    -0.00005664   -0.00001530   -0.00001530
     atom   42 type  1   force =    -0.00005579   -0.00001629   -0.00001629
     atom   43 type  1   force =    -0.00006261    0.00003811   -0.00000903
     atom   44 type  1   force =    -0.00005585    0.00004047   -0.00001047
     atom   45 type  1   force =    -0.00005294    0.00004140   -0.00001423
     atom   46 type  1   force =    -0.00005765    0.00001471    0.00003794
     atom   47 type  1   force =    -0.00005468    0.00001308    0.00003661
     atom   48 type  1   force =    -0.00005714    0.00001877    0.00003827
     atom   49 type  1   force =    -0.00006261   -0.00000903    0.00003811
     atom   50 type  1   force =    -0.00005585   -0.00001047    0.00004047
     atom   51 type  1   force =    -0.00005294   -0.00001423    0.00004140
     atom   52 type  1   force =    -0.00005869    0.00002628    0.00002628
     atom   53 type  1   force =    -0.00005772    0.00003012    0.00003012
     atom   54 type  1   force =    -0.00005557    0.00002606    0.00002606
     atom   55 type  2   force =    -0.00000566   -0.00097989   -0.00097989
     atom   56 type  2   force =    -0.00000568   -0.00097958   -0.00097958
     atom   57 type  2   force =    -0.00000532   -0.00097935   -0.00097935
     atom   58 type  2   force =    -0.00000796   -0.00090777   -0.00096469
     atom   59 type  2   force =    -0.00000839   -0.00090757   -0.00096464
     atom   60 type  2   force =    -0.00000882   -0.00090771   -0.00096420
     atom   61 type  2   force =    -0.00000622   -0.00064492   -0.00095234
     atom   62 type  2   force =    -0.00000622   -0.00064501   -0.00095243
     atom   63 type  2   force =    -0.00000613   -0.00064491   -0.00095215
     atom   64 type  2   force =    -0.00000796   -0.00096469   -0.00090777
     atom   65 type  2   force =    -0.00000839   -0.00096464   -0.00090757
     atom   66 type  2   force =    -0.00000882   -0.00096420   -0.00090771
     atom   67 type  2   force =    -0.00001081   -0.00089698   -0.00089698
     atom   68 type  2   force =    -0.00001111   -0.00089698   -0.00089698
     atom   69 type  2   force =    -0.00001149   -0.00089722   -0.00089722
     atom   70 type  2   force =    -0.00000919   -0.00064623   -0.00090434
     atom   71 type  2   force =    -0.00000895   -0.00064633   -0.00090456
     atom   72 type  2   force =    -0.00000896   -0.00064637   -0.00090435
     atom   73 type  2   force =    -0.00000622   -0.00095234   -0.00064492
     atom   74 type  2   force =    -0.00000622   -0.00095243   -0.00064501
     atom   75 type  2   force =    -0.00000613   -0.00095215   -0.00064491
     atom   76 type  2   force =    -0.00000919   -0.00090434   -0.00064623
     atom   77 type  2   force =    -0.00000895   -0.00090456   -0.00064633
     atom   78 type  2   force =    -0.00000896   -0.00090435   -0.00064637
     atom   79 type  2   force =    -0.00000707   -0.00062912   -0.00062912
     atom   80 type  2   force =    -0.00000701   -0.00062894   -0.00062894
     atom   81 type  2   force =    -0.00000688   -0.00062906   -0.00062906
     atom   82 type  2   force =     0.00001515    0.00070743   -0.00080760
     atom   83 type  2   force =     0.00001547    0.00070768   -0.00080753
     atom   84 type  2   force =     0.00001637    0.00070755   -0.00080722
     atom   85 type  2   force =     0.00001530    0.00099293   -0.00083483
     atom   86 type  2   force =     0.00001504    0.00099301   -0.00083506
     atom   87 type  2   force =     0.00001550    0.00099296   -0.00083517
     atom   88 type  2   force =     0.00001284    0.00078554   -0.00081817
     atom   89 type  2   force =     0.00001261    0.00078489   -0.00081828
     atom   90 type  2   force =     0.00001328    0.00078498   -0.00081831
     atom   91 type  2   force =     0.00001747    0.00071246   -0.00102896
     atom   92 type  2   force =     0.00001771    0.00071279   -0.00102880
     atom   93 type  2   force =     0.00001750    0.00071258   -0.00102891
     atom   94 type  2   force =     0.00001799    0.00098995   -0.00104530
     atom   95 type  2   force =     0.00001730    0.00098964   -0.00104494
     atom   96 type  2   force =     0.00001684    0.00098923   -0.00104485
     atom   97 type  2   force =     0.00001505    0.00080588   -0.00104892
     atom   98 type  2   force =     0.00001523    0.00080536   -0.00104833
     atom   99 type  2   force =     0.00001486    0.00080575   -0.00104869
     atom  100 type  2   force =     0.00001837    0.00070562   -0.00077202
     atom  101 type  2   force =     0.00001786    0.00070587   -0.00077222
     atom  102 type  2   force =     0.00001853    0.00070537   -0.00077174
     atom  103 type  2   force =     0.00001798    0.00097441   -0.00077724
     atom  104 type  2   force =     0.00001784    0.00097426   -0.00077708
     atom  105 type  2   force =     0.00001790    0.00097447   -0.00077691
     atom  106 type  2   force =     0.00001567    0.00077820   -0.00077420
     atom  107 type  2   force =     0.00001599    0.00077780   -0.00077415
     atom  108 type  2   force =     0.00001565    0.00077783   -0.00077422
     atom  109 type  2   force =    -0.00000639    0.00065528    0.00065528
     atom  110 type  2   force =    -0.00000715    0.00065492    0.00065492
     atom  111 type  2   force =    -0.00000648    0.00065494    0.00065494
     atom  112 type  2   force =    -0.00000911    0.00090559    0.00067348
     atom  113 type  2   force =    -0.00000929    0.00090612    0.00067383
     atom  114 type  2   force =    -0.00000851    0.00090590    0.00067364
     atom  115 type  2   force =    -0.00000611    0.00099313    0.00067409
     atom  116 type  2   force =    -0.00000648    0.00099316    0.00067423
     atom  117 type  2   force =    -0.00000620    0.00099268    0.00067360
     atom  118 type  2   force =    -0.00000911    0.00067348    0.00090559
     atom  119 type  2   force =    -0.00000929    0.00067383    0.00090612
     atom  120 type  2   force =    -0.00000851    0.00067364    0.00090590
     atom  121 type  2   force =    -0.00001119    0.00089652    0.00089652
     atom  122 type  2   force =    -0.00001133    0.00089706    0.00089706
     atom  123 type  2   force =    -0.00001140    0.00089712    0.00089712
     atom  124 type  2   force =    -0.00000849    0.00100071    0.00090605
     atom  125 type  2   force =    -0.00000859    0.00100049    0.00090612
     atom  126 type  2   force =    -0.00000914    0.00100086    0.00090636
     atom  127 type  2   force =    -0.00000611    0.00067409    0.00099313
     atom  128 type  2   force =    -0.00000648    0.00067423    0.00099316
     atom  129 type  2   force =    -0.00000620    0.00067360    0.00099268
     atom  130 type  2   force =    -0.00000849    0.00090605    0.00100071
     atom  131 type  2   force =    -0.00000859    0.00090612    0.00100049
     atom  132 type  2   force =    -0.00000914    0.00090636    0.00100086
     atom  133 type  2   force =    -0.00000631    0.00102059    0.00102059
     atom  134 type  2   force =    -0.00000583    0.00102043    0.00102043
     atom  135 type  2   force =    -0.00000580    0.00102040    0.00102040
     atom  136 type  2   force =     0.00001515   -0.00080760    0.00070743
     atom  137 type  2   force =     0.00001547   -0.00080753    0.00070768
     atom  138 type  2   force =     0.00001637   -0.00080722    0.00070755
     atom  139 type  2   force =     0.00001747   -0.00102896    0.00071246
     atom  140 type  2   force =     0.00001771   -0.00102880    0.00071279
     atom  141 type  2   force =     0.00001750   -0.00102891    0.00071258
     atom  142 type  2   force =     0.00001837   -0.00077202    0.00070562
     atom  143 type  2   force =     0.00001786   -0.00077222    0.00070587
     atom  144 type  2   force =     0.00001853   -0.00077174    0.00070537
     atom  145 type  2   force =     0.00001530   -0.00083483    0.00099293
     atom  146 type  2   force =     0.00001504   -0.00083506    0.00099301
     atom  147 type  2   force =     0.00001550   -0.00083517    0.00099296
     atom  148 type  2   force =     0.00001799   -0.00104530    0.00098995
     atom  149 type  2   force =     0.00001730   -0.00104494    0.00098964
     atom  150 type  2   force =     0.00001684   -0.00104485    0.00098923
     atom  151 type  2   force =     0.00001798   -0.00077724    0.00097441
     atom  152 type  2   force =     0.00001784   -0.00077708    0.00097426
     atom  153 type  2   force =     0.00001790   -0.00077691    0.00097447
     atom  154 type  2   force =     0.00001284   -0.00081817    0.00078554
     atom  155 type  2   force =     0.00001261   -0.00081828    0.00078489
     atom  156 type  2   force =     0.00001328   -0.00081831    0.00078498
     atom  157 type  2   force =     0.00001505   -0.00104892    0.00080588
     atom  158 type  2   force =     0.00001523   -0.00104833    0.00080536
     atom  159 type  2   force =     0.00001486   -0.00104869    0.00080575
     atom  160 type  2   force =     0.00001567   -0.00077420    0.00077820
     atom  161 type  2   force =     0.00001599   -0.00077415    0.00077780
     atom  162 type  2   force =     0.00001565   -0.00077422    0.00077783

     Total force =     0.012652     Total SCF correction =     0.000275
 
     init_run     :     18.13s CPU     24.51s WALL (       1 calls)
     electrons    :    681.41s CPU    914.99s WALL (       1 calls)
     forces       :     15.14s CPU     24.36s WALL (       1 calls)

     Called by init_run:
     wfcinit      :     17.63s CPU     23.92s WALL (       1 calls)
     potinit      :      0.10s CPU      0.11s WALL (       1 calls)
     hinit0       :      0.15s CPU      0.20s WALL (       1 calls)

     Called by electrons:
     c_bands      :    650.75s CPU    880.23s WALL (      13 calls)
     sum_band     :     30.20s CPU     33.85s WALL (      13 calls)
     v_of_rho     :      0.36s CPU      0.62s WALL (      14 calls)
     mix_rho      :      0.11s CPU      0.30s WALL (      13 calls)

     Called by c_bands:
     init_us_2    :      5.77s CPU      5.87s WALL (     168 calls)
     cegterg      :    630.35s CPU    859.26s WALL (      78 calls)

     Called by *egterg:
     cdiaghg      :     43.22s CPU     81.36s WALL (     357 calls)
     h_psi        :    326.81s CPU    359.95s WALL (     363 calls)
     g_psi        :      1.15s CPU      1.17s WALL (     279 calls)

     Called by h_psi:
     h_psi:calbec :    104.41s CPU    113.72s WALL (     363 calls)
     vloc_psi     :    136.02s CPU    157.52s WALL (     363 calls)
     add_vuspsi   :     84.03s CPU     86.02s WALL (     363 calls)

     General routines
     calbec       :    116.29s CPU    134.63s WALL (     387 calls)
     fft          :      0.26s CPU      0.59s WALL (     150 calls)
     ffts         :      0.01s CPU      0.01s WALL (      13 calls)
     fftw         :    151.26s CPU    174.86s WALL (  361272 calls)
 
     Parallel routines
 
     PWSCF        :  11m54.73s CPU  16m 4.13s WALL

 
   This run was terminated on:  17:53:22  19May2025            

=------------------------------------------------------------------------------=
   JOB DONE.
=------------------------------------------------------------------------------=
