
     Program PWSCF v.6.8 starts on 19May2025 at 17:36:17 

     This program is part of the open-source Quantum ESPRESSO suite
     for quantum simulation of materials; please cite
         "P. Giannozzi et al., J. Phys.:Condens. Matter 21 395502 (2009);
         "P. Giannozzi et al., J. Phys.:Condens. Matter 29 465901 (2017);
         "P. Giannozzi et al., J. Chem. Phys. 152 154105 (2020);
          URL http://www.quantum-espresso.org", 
     in publications or presentations arising from this work. More details at
     http://www.quantum-espresso.org/quote

     Parallel version (MPI & OpenMP), running on      56 processor cores
     Number of MPI processes:                56
     Threads/MPI process:                     1

     MPI processes distributed on     1 nodes
     R & G space division:  proc/nbgrp/npool/nimage =      56
     186119 MiB available memory on the printing compute node when the environment starts
 
     Reading input from supercell-009.in

     Current dimensions of program PWSCF are:
     Max number of different atomic species (ntypx) = 10
     Max number of k-points (npk) =  40000
     Max angular momentum in pseudopotentials (lmaxx) =  4

     Subspace diagonalization in iterative solution of the eigenvalue problem:
     one sub-group per band group will be used
     scalapack distributed-memory algorithm (size of sub-group:  7*  7 procs)

 
     Parallelization info
     --------------------
     sticks:   dense  smooth     PW     G-vecs:    dense   smooth      PW
     Min         142     142     37                11872    11872    1609
     Max         143     143     38                11879    11879    1614
     Sum        7985    7985   2105               665041   665041   90217
 
     Using Slab Decomposition
 


     bravais-lattice index     =            0
     lattice parameter (alat)  =      16.4683  a.u.
     unit-cell volume          =   10586.5407 (a.u.)^3
     number of atoms/cell      =          162
     number of atomic types    =            2
     number of electrons       =      1404.00
     number of Kohn-Sham states=          702
     kinetic-energy cutoff     =      60.0000  Ry
     charge density cutoff     =     240.0000  Ry
     scf convergence threshold =      1.0E-08
     mixing beta               =       0.7000
     number of iterations used =            8  plain     mixing
     Exchange-correlation= PBE
                           (   1   4   3   4   0   0   0)

     celldm(1)=  16.468320  celldm(2)=   0.000000  celldm(3)=   0.000000
     celldm(4)=   0.000000  celldm(5)=   0.000000  celldm(6)=   0.000000

     crystal axes: (cart. coord. in units of alat)
               a(1) = (   1.000000   0.000000   0.000000 )  
               a(2) = (   0.000000   1.539583   0.000000 )  
               a(3) = (   0.000000   0.000000   1.539583 )  

     reciprocal axes: (cart. coord. in units 2 pi/alat)
               b(1) = (  1.000000  0.000000  0.000000 )  
               b(2) = (  0.000000  0.649527  0.000000 )  
               b(3) = (  0.000000  0.000000  0.649527 )  


     PseudoPot. # 1 for Ge read from file:
     ./Ge.upf
     MD5 check sum: 087fa14d6c89b52166990835c3b338da
     Pseudo is Norm-conserving + core correction, Zval = 14.0
     Generated using ONCVPSP code by D. R. Hamann
     Using radial grid of 1560 points,  6 beta functions with: 
                l(1) =   0
                l(2) =   0
                l(3) =   1
                l(4) =   1
                l(5) =   2
                l(6) =   2

     PseudoPot. # 2 for O  read from file:
     ./O.upf
     MD5 check sum: 9db02a5ece9d56b81b65a73f8163743d
     Pseudo is Norm-conserving + core correction, Zval =  6.0
     Generated using ONCVPSP code by D. R. Hamann
     Using radial grid of  936 points,  5 beta functions with: 
                l(1) =   0
                l(2) =   0
                l(3) =   1
                l(4) =   1
                l(5) =   2

     atomic species   valence    mass     pseudopotential
        Ge            14.00    72.64000     Ge( 1.00)
        O              6.00    15.99940     O ( 1.00)

     No symmetry found



   Cartesian axes

     site n.     atom                  positions (alat units)
         1           Ge  tau(   1) = (   0.1668459   0.2567076   0.2567076  )
         2           Ge  tau(   2) = (   0.5001793   0.2567076   0.2567076  )
         3           Ge  tau(   3) = (   0.8335126   0.2567076   0.2567076  )
         4           Ge  tau(   4) = (   0.1668459   0.7699019   0.2567076  )
         5           Ge  tau(   5) = (   0.5001793   0.7699019   0.2567076  )
         6           Ge  tau(   6) = (   0.8335126   0.7699019   0.2567076  )
         7           Ge  tau(   7) = (   0.1668459   1.2830962   0.2567076  )
         8           Ge  tau(   8) = (   0.5001793   1.2830962   0.2567076  )
         9           Ge  tau(   9) = (   0.8335126   1.2830962   0.2567076  )
        10           Ge  tau(  10) = (   0.1668459   0.2567076   0.7699019  )
        11           Ge  tau(  11) = (   0.5001793   0.2567076   0.7699019  )
        12           Ge  tau(  12) = (   0.8335126   0.2567076   0.7699019  )
        13           Ge  tau(  13) = (   0.1668459   0.7699019   0.7699019  )
        14           Ge  tau(  14) = (   0.5001793   0.7699019   0.7699019  )
        15           Ge  tau(  15) = (   0.8335126   0.7699019   0.7699019  )
        16           Ge  tau(  16) = (   0.1668459   1.2830962   0.7699019  )
        17           Ge  tau(  17) = (   0.5001793   1.2830962   0.7699019  )
        18           Ge  tau(  18) = (   0.8335126   1.2830962   0.7699019  )
        19           Ge  tau(  19) = (   0.1668459   0.2567076   1.2830962  )
        20           Ge  tau(  20) = (   0.5001793   0.2567076   1.2830962  )
        21           Ge  tau(  21) = (   0.8335126   0.2567076   1.2830962  )
        22           Ge  tau(  22) = (   0.1668459   0.7699019   1.2830962  )
        23           Ge  tau(  23) = (   0.5001793   0.7699019   1.2830962  )
        24           Ge  tau(  24) = (   0.8335126   0.7699019   1.2830962  )
        25           Ge  tau(  25) = (   0.1668459   1.2830962   1.2830962  )
        26           Ge  tau(  26) = (   0.5001793   1.2830962   1.2830962  )
        27           Ge  tau(  27) = (   0.8335126   1.2830962   1.2830962  )
        28           Ge  tau(  28) = (   0.0002011   0.0001111   0.0001111  )
        29           Ge  tau(  29) = (   0.3335344   0.0001111   0.0001111  )
        30           Ge  tau(  30) = (   0.6668677   0.0001111   0.0001111  )
        31           Ge  tau(  31) = (   0.0002011   0.5133054   0.0001111  )
        32           Ge  tau(  32) = (   0.3335344   0.5133054   0.0001111  )
        33           Ge  tau(  33) = (   0.6668677   0.5133054   0.0001111  )
        34           Ge  tau(  34) = (   0.0002011   1.0264997   0.0001111  )
        35           Ge  tau(  35) = (   0.3335344   1.0264997   0.0001111  )
        36           Ge  tau(  36) = (   0.6668677   1.0264997   0.0001111  )
        37           Ge  tau(  37) = (   0.0002011   0.0001111   0.5133054  )
        38           Ge  tau(  38) = (   0.3335344   0.0001111   0.5133054  )
        39           Ge  tau(  39) = (   0.6668677   0.0001111   0.5133054  )
        40           Ge  tau(  40) = (   0.0002011   0.5133054   0.5133054  )
        41           Ge  tau(  41) = (   0.3335344   0.5133054   0.5133054  )
        42           Ge  tau(  42) = (   0.6668677   0.5133054   0.5133054  )
        43           Ge  tau(  43) = (   0.0002011   1.0264997   0.5133054  )
        44           Ge  tau(  44) = (   0.3335344   1.0264997   0.5133054  )
        45           Ge  tau(  45) = (   0.6668677   1.0264997   0.5133054  )
        46           Ge  tau(  46) = (   0.0002011   0.0001111   1.0264997  )
        47           Ge  tau(  47) = (   0.3335344   0.0001111   1.0264997  )
        48           Ge  tau(  48) = (   0.6668677   0.0001111   1.0264997  )
        49           Ge  tau(  49) = (   0.0002011   0.5133054   1.0264997  )
        50           Ge  tau(  50) = (   0.3335344   0.5133054   1.0264997  )
        51           Ge  tau(  51) = (   0.6668677   0.5133054   1.0264997  )
        52           Ge  tau(  52) = (   0.0002011   1.0264997   1.0264997  )
        53           Ge  tau(  53) = (   0.3335344   1.0264997   1.0264997  )
        54           Ge  tau(  54) = (   0.6668677   1.0264997   1.0264997  )
        55           O   tau(  55) = (   0.0001875   0.3570199   0.3558055  )
        56           O   tau(  56) = (   0.3335209   0.3558055   0.3558055  )
        57           O   tau(  57) = (   0.6668542   0.3558055   0.3558055  )
        58           O   tau(  58) = (   0.0001875   0.8689998   0.3558055  )
        59           O   tau(  59) = (   0.3335209   0.8689998   0.3558055  )
        60           O   tau(  60) = (   0.6668542   0.8689998   0.3558055  )
        61           O   tau(  61) = (   0.0001875   1.3821941   0.3558055  )
        62           O   tau(  62) = (   0.3335209   1.3821941   0.3558055  )
        63           O   tau(  63) = (   0.6668542   1.3821941   0.3558055  )
        64           O   tau(  64) = (   0.0001875   0.3558055   0.8689998  )
        65           O   tau(  65) = (   0.3335209   0.3558055   0.8689998  )
        66           O   tau(  66) = (   0.6668542   0.3558055   0.8689998  )
        67           O   tau(  67) = (   0.0001875   0.8689998   0.8689998  )
        68           O   tau(  68) = (   0.3335209   0.8689998   0.8689998  )
        69           O   tau(  69) = (   0.6668542   0.8689998   0.8689998  )
        70           O   tau(  70) = (   0.0001875   1.3821941   0.8689998  )
        71           O   tau(  71) = (   0.3335209   1.3821941   0.8689998  )
        72           O   tau(  72) = (   0.6668542   1.3821941   0.8689998  )
        73           O   tau(  73) = (   0.0001875   0.3558055   1.3821941  )
        74           O   tau(  74) = (   0.3335209   0.3558055   1.3821941  )
        75           O   tau(  75) = (   0.6668542   0.3558055   1.3821941  )
        76           O   tau(  76) = (   0.0001875   0.8689998   1.3821941  )
        77           O   tau(  77) = (   0.3335209   0.8689998   1.3821941  )
        78           O   tau(  78) = (   0.6668542   0.8689998   1.3821941  )
        79           O   tau(  79) = (   0.0001875   1.3821941   1.3821941  )
        80           O   tau(  80) = (   0.3335209   1.3821941   1.3821941  )
        81           O   tau(  81) = (   0.6668542   1.3821941   1.3821941  )
        82           O   tau(  82) = (   0.1668565   0.4142272   0.0992221  )
        83           O   tau(  83) = (   0.5001898   0.4142272   0.0992221  )
        84           O   tau(  84) = (   0.8335231   0.4142272   0.0992221  )
        85           O   tau(  85) = (   0.1668565   0.9274215   0.0992221  )
        86           O   tau(  86) = (   0.5001898   0.9274215   0.0992221  )
        87           O   tau(  87) = (   0.8335231   0.9274215   0.0992221  )
        88           O   tau(  88) = (   0.1668565   1.4406159   0.0992221  )
        89           O   tau(  89) = (   0.5001898   1.4406159   0.0992221  )
        90           O   tau(  90) = (   0.8335231   1.4406159   0.0992221  )
        91           O   tau(  91) = (   0.1668565   0.4142272   0.6124165  )
        92           O   tau(  92) = (   0.5001898   0.4142272   0.6124165  )
        93           O   tau(  93) = (   0.8335231   0.4142272   0.6124165  )
        94           O   tau(  94) = (   0.1668565   0.9274215   0.6124165  )
        95           O   tau(  95) = (   0.5001898   0.9274215   0.6124165  )
        96           O   tau(  96) = (   0.8335231   0.9274215   0.6124165  )
        97           O   tau(  97) = (   0.1668565   1.4406159   0.6124165  )
        98           O   tau(  98) = (   0.5001898   1.4406159   0.6124165  )
        99           O   tau(  99) = (   0.8335231   1.4406159   0.6124165  )
       100           O   tau( 100) = (   0.1668565   0.4142272   1.1256108  )
       101           O   tau( 101) = (   0.5001898   0.4142272   1.1256108  )
       102           O   tau( 102) = (   0.8335231   0.4142272   1.1256108  )
       103           O   tau( 103) = (   0.1668565   0.9274215   1.1256108  )
       104           O   tau( 104) = (   0.5001898   0.9274215   1.1256108  )
       105           O   tau( 105) = (   0.8335231   0.9274215   1.1256108  )
       106           O   tau( 106) = (   0.1668565   1.4406159   1.1256108  )
       107           O   tau( 107) = (   0.5001898   1.4406159   1.1256108  )
       108           O   tau( 108) = (   0.8335231   1.4406159   1.1256108  )
       109           O   tau( 109) = (   0.0001875   0.1576176   0.1576176  )
       110           O   tau( 110) = (   0.3335209   0.1576176   0.1576176  )
       111           O   tau( 111) = (   0.6668542   0.1576176   0.1576176  )
       112           O   tau( 112) = (   0.0001875   0.6708120   0.1576176  )
       113           O   tau( 113) = (   0.3335209   0.6708120   0.1576176  )
       114           O   tau( 114) = (   0.6668542   0.6708120   0.1576176  )
       115           O   tau( 115) = (   0.0001875   1.1840063   0.1576176  )
       116           O   tau( 116) = (   0.3335209   1.1840063   0.1576176  )
       117           O   tau( 117) = (   0.6668542   1.1840063   0.1576176  )
       118           O   tau( 118) = (   0.0001875   0.1576176   0.6708120  )
       119           O   tau( 119) = (   0.3335209   0.1576176   0.6708120  )
       120           O   tau( 120) = (   0.6668542   0.1576176   0.6708120  )
       121           O   tau( 121) = (   0.0001875   0.6708120   0.6708120  )
       122           O   tau( 122) = (   0.3335209   0.6708120   0.6708120  )
       123           O   tau( 123) = (   0.6668542   0.6708120   0.6708120  )
       124           O   tau( 124) = (   0.0001875   1.1840063   0.6708120  )
       125           O   tau( 125) = (   0.3335209   1.1840063   0.6708120  )
       126           O   tau( 126) = (   0.6668542   1.1840063   0.6708120  )
       127           O   tau( 127) = (   0.0001875   0.1576176   1.1840063  )
       128           O   tau( 128) = (   0.3335209   0.1576176   1.1840063  )
       129           O   tau( 129) = (   0.6668542   0.1576176   1.1840063  )
       130           O   tau( 130) = (   0.0001875   0.6708120   1.1840063  )
       131           O   tau( 131) = (   0.3335209   0.6708120   1.1840063  )
       132           O   tau( 132) = (   0.6668542   0.6708120   1.1840063  )
       133           O   tau( 133) = (   0.0001875   1.1840063   1.1840063  )
       134           O   tau( 134) = (   0.3335209   1.1840063   1.1840063  )
       135           O   tau( 135) = (   0.6668542   1.1840063   1.1840063  )
       136           O   tau( 136) = (   0.1668565   0.0992221   0.4142272  )
       137           O   tau( 137) = (   0.5001898   0.0992221   0.4142272  )
       138           O   tau( 138) = (   0.8335231   0.0992221   0.4142272  )
       139           O   tau( 139) = (   0.1668565   0.6124165   0.4142272  )
       140           O   tau( 140) = (   0.5001898   0.6124165   0.4142272  )
       141           O   tau( 141) = (   0.8335231   0.6124165   0.4142272  )
       142           O   tau( 142) = (   0.1668565   1.1256108   0.4142272  )
       143           O   tau( 143) = (   0.5001898   1.1256108   0.4142272  )
       144           O   tau( 144) = (   0.8335231   1.1256108   0.4142272  )
       145           O   tau( 145) = (   0.1668565   0.0992221   0.9274215  )
       146           O   tau( 146) = (   0.5001898   0.0992221   0.9274215  )
       147           O   tau( 147) = (   0.8335231   0.0992221   0.9274215  )
       148           O   tau( 148) = (   0.1668565   0.6124165   0.9274215  )
       149           O   tau( 149) = (   0.5001898   0.6124165   0.9274215  )
       150           O   tau( 150) = (   0.8335231   0.6124165   0.9274215  )
       151           O   tau( 151) = (   0.1668565   1.1256108   0.9274215  )
       152           O   tau( 152) = (   0.5001898   1.1256108   0.9274215  )
       153           O   tau( 153) = (   0.8335231   1.1256108   0.9274215  )
       154           O   tau( 154) = (   0.1668565   0.0992221   1.4406159  )
       155           O   tau( 155) = (   0.5001898   0.0992221   1.4406159  )
       156           O   tau( 156) = (   0.8335231   0.0992221   1.4406159  )
       157           O   tau( 157) = (   0.1668565   0.6124165   1.4406159  )
       158           O   tau( 158) = (   0.5001898   0.6124165   1.4406159  )
       159           O   tau( 159) = (   0.8335231   0.6124165   1.4406159  )
       160           O   tau( 160) = (   0.1668565   1.1256108   1.4406159  )
       161           O   tau( 161) = (   0.5001898   1.1256108   1.4406159  )
       162           O   tau( 162) = (   0.8335231   1.1256108   1.4406159  )

     number of k points=     8
                       cart. coord. in units 2pi/alat
        k(    1) = (   0.0000000   0.0000000   0.0000000), wk =   0.1666667
        k(    2) = (   0.0000000   0.0000000  -0.3247633), wk =   0.1666667
        k(    3) = (   0.0000000  -0.3247633  -0.3247633), wk =   0.1666667
        k(    4) = (   0.3333333   0.0000000   0.0000000), wk =   0.3333333
        k(    5) = (   0.3333333   0.0000000  -0.3247633), wk =   0.3333333
        k(    6) = (   0.3333333  -0.3247633  -0.3247633), wk =   0.3333333
        k(    7) = (   0.0000000  -0.3247633   0.0000000), wk =   0.1666667
        k(    8) = (  -0.3333333  -0.3247633   0.0000000), wk =   0.3333333

     Dense  grid:   665041 G-vectors     FFT dimensions: (  81, 125, 125)

     Estimated max dynamical RAM per process >     297.43 MB

     Estimated total dynamical RAM >      16.27 GB

     Check: negative core charge=   -0.000052

     Initial potential from superposition of free atoms

     starting charge 1403.95515, renormalised to 1404.00000
     Starting wfcs are  918 randomized atomic wfcs

     total cpu time spent up to now is       32.2 secs

     Self-consistent Calculation

     iteration #  1     ecut=    60.00 Ry     beta= 0.70
     Davidson diagonalization with overlap
     ethr =  1.00E-02,  avg # of iterations =  2.0

     total cpu time spent up to now is      122.7 secs

     total energy              =  -13210.92865720 Ry
     estimated scf accuracy    <      34.04600157 Ry

     iteration #  2     ecut=    60.00 Ry     beta= 0.70
     Davidson diagonalization with overlap
     ethr =  2.42E-03,  avg # of iterations =  3.9

     total cpu time spent up to now is      219.9 secs

     total energy              =  -13222.25199620 Ry
     estimated scf accuracy    <      22.01997925 Ry

     iteration #  3     ecut=    60.00 Ry     beta= 0.70
     Davidson diagonalization with overlap
     ethr =  1.57E-03,  avg # of iterations =  2.0

     total cpu time spent up to now is      306.1 secs

     total energy              =  -13225.45815319 Ry
     estimated scf accuracy    <       0.43811617 Ry

     iteration #  4     ecut=    60.00 Ry     beta= 0.70
     Davidson diagonalization with overlap
     ethr =  3.12E-05,  avg # of iterations =  6.0

     total cpu time spent up to now is      433.7 secs

     total energy              =  -13225.87537379 Ry
     estimated scf accuracy    <       0.56193212 Ry

     iteration #  5     ecut=    60.00 Ry     beta= 0.70
     Davidson diagonalization with overlap
     ethr =  3.12E-05,  avg # of iterations =  2.0

     total cpu time spent up to now is      514.4 secs

     total energy              =  -13225.87772935 Ry
     estimated scf accuracy    <       0.09232883 Ry

     iteration #  6     ecut=    60.00 Ry     beta= 0.70
     Davidson diagonalization with overlap
     ethr =  6.58E-06,  avg # of iterations =  4.5

     total cpu time spent up to now is      614.1 secs

     total energy              =  -13225.90769175 Ry
     estimated scf accuracy    <       0.00067215 Ry

     iteration #  7     ecut=    60.00 Ry     beta= 0.70
     Davidson diagonalization with overlap
     ethr =  4.79E-08,  avg # of iterations =  6.0

     total cpu time spent up to now is      739.8 secs

     total energy              =  -13225.90718557 Ry
     estimated scf accuracy    <       0.00379566 Ry

     iteration #  8     ecut=    60.00 Ry     beta= 0.70
     Davidson diagonalization with overlap
     ethr =  4.79E-08,  avg # of iterations =  4.4

     total cpu time spent up to now is      837.3 secs

     total energy              =  -13225.90707277 Ry
     estimated scf accuracy    <       0.00084763 Ry

     iteration #  9     ecut=    60.00 Ry     beta= 0.70
     Davidson diagonalization with overlap
     ethr =  4.79E-08,  avg # of iterations =  2.4

     total cpu time spent up to now is      924.2 secs

     total energy              =  -13225.90716098 Ry
     estimated scf accuracy    <       0.00007988 Ry

     iteration # 10     ecut=    60.00 Ry     beta= 0.70
     Davidson diagonalization with overlap
     ethr =  5.69E-09,  avg # of iterations =  4.5

     total cpu time spent up to now is     1016.5 secs

     total energy              =  -13225.90717457 Ry
     estimated scf accuracy    <       0.00000745 Ry

     iteration # 11     ecut=    60.00 Ry     beta= 0.70
     Davidson diagonalization with overlap
     ethr =  5.31E-10,  avg # of iterations =  2.4

     total cpu time spent up to now is     1103.6 secs

     total energy              =  -13225.90717601 Ry
     estimated scf accuracy    <       0.00000036 Ry

     iteration # 12     ecut=    60.00 Ry     beta= 0.70
     Davidson diagonalization with overlap
     ethr =  2.58E-11,  avg # of iterations =  5.4

     total cpu time spent up to now is     1211.6 secs

     total energy              =  -13225.90717616 Ry
     estimated scf accuracy    <       0.00000003 Ry

     iteration # 13     ecut=    60.00 Ry     beta= 0.70
     Davidson diagonalization with overlap
     ethr =  1.79E-12,  avg # of iterations =  2.8

     total cpu time spent up to now is     1299.1 secs

     total energy              =  -13225.90717615 Ry
     estimated scf accuracy    <       0.00000003 Ry

     iteration # 14     ecut=    60.00 Ry     beta= 0.70
     Davidson diagonalization with overlap
     ethr =  1.79E-12,  avg # of iterations =  2.9

     total cpu time spent up to now is     1382.5 secs

     End of self-consistent calculation

          k = 0.0000 0.0000 0.0000 ( 83133 PWs)   bands (ev):

   -14.2938 -14.2532 -14.2525 -14.2519 -14.2513 -14.2356 -14.2352 -14.2347
   -14.2339 -14.2204 -14.2203 -14.2200 -14.2195 -14.2194 -14.2193 -14.2192
   -14.2191 -14.2176 -14.2176 -14.2172 -14.2171 -14.2167 -14.2166 -14.2166
   -14.2161 -14.2120 -14.2119 -14.2118 -14.2117 -14.2117 -14.2114 -14.2110
   -14.2095 -14.1893 -14.1889 -14.1885 -14.1876 -14.1841 -14.1839 -14.1839
   -14.1835 -14.1833 -14.1831 -14.1831 -14.1830 -14.1817 -14.1817 -14.1813
   -14.1796 -14.1635 -14.1628 -14.1621 -14.1614 -14.1206 -14.1196 -14.1194
   -14.0666 -14.0660 -14.0657 -14.0657 -14.0653 -14.0651 -14.0648 -14.0646
   -14.0419 -14.0416 -14.0413 -14.0410 -14.0406 -14.0404 -14.0401 -14.0400
   -14.0154 -14.0152 -14.0148 -14.0148 -14.0144 -14.0142 -14.0141 -14.0136
   -13.9933 -13.9932 -13.9920 -13.9918 -13.9916 -13.9916 -13.9915 -13.9914
   -13.9911 -13.9911 -13.9909 -13.9905 -13.9900 -13.9893 -13.9882 -13.9880
   -13.9876 -13.9867 -13.9866 -13.9865 -13.9862 -13.9860 -13.9856 -13.9849
   -13.9847 -13.9838 -13.9837 -13.9827 -13.9825 -13.9825 -13.9815 -13.9809
   -13.9808 -13.9802 -13.9799 -13.9796 -13.9783 -13.9639 -13.9633 -13.9630
   -13.9621 -13.9583 -13.9577 -13.9570 -13.9558 -13.9410 -13.9395 -13.9383
   -13.9379 -13.9379 -13.9373 -13.9372 -13.9368 -13.9363 -13.9361 -13.9361
   -13.9361 -13.9360 -13.9360 -13.9360 -13.9358 -13.9355 -13.9355 -13.9352
   -13.9352 -13.9350 -13.9350 -13.9349 -13.9349 -13.9347 -13.9347 -13.9346
   -13.9343 -13.9342 -13.9341 -13.9338 -13.9337 -13.9331 -13.9323 -13.9321
   -13.9302 -13.9286 -13.9284 -13.9273 -13.9209 -13.9208 -13.9202 -13.9198
   -13.9195 -13.9194 -13.9191 -13.9190 -13.9169 -13.9167 -13.9156 -13.9155
   -13.9152 -13.9150 -13.9149 -13.9147 -13.9146 -13.9146 -13.9144 -13.9144
   -13.9140 -13.9140 -13.9137 -13.9137 -13.9134 -13.9133 -13.9133 -13.9130
   -13.9130 -13.9125 -13.9123 -13.9122 -13.9118 -13.9109 -13.9072 -13.9061
   -13.9061 -13.9047 -13.9040 -13.9034 -13.9033 -13.9028 -13.9028 -13.9024
   -13.9018 -13.8975 -13.8972 -13.8970 -13.8969 -13.8965 -13.8964 -13.8960
   -13.8960 -13.8955 -13.8953 -13.8952 -13.8951 -13.8950 -13.8949 -13.8948
   -13.8947 -13.8944 -13.8944 -13.8940 -13.8939 -13.8928 -13.8925 -13.8924
   -13.8924 -13.8922 -13.8920 -13.8916 -13.8914 -13.8914 -13.8913 -13.8911
   -13.8910 -13.8909 -13.8905 -13.8902 -13.8901 -13.8897 -13.8896 -13.8888
   -13.8880 -13.8877 -13.8875 -13.8871 -13.8868 -13.8863 -13.8861 -13.8859
   -13.8859 -13.8858 -13.8857 -13.8854 -13.8851 -13.8851 -13.8848 -13.8847
   -13.8845 -13.8843 -13.8841 -13.8833 -13.8827 -13.8782 -10.2580  -9.7881
    -9.7877  -9.7872  -9.7866  -9.3402  -9.3398  -9.3394  -9.3393  -9.1866
    -9.1864  -8.8136  -8.8130  -8.8128  -8.8125  -8.8123  -8.8122  -8.8116
    -8.8112  -8.5482  -8.5479  -8.5473  -8.5468  -8.4898  -8.4894  -8.4892
    -8.4891  -8.4891  -8.4889  -8.4879  -8.4878  -8.4730  -8.4724  -8.4720
    -8.4709  -7.9427  -7.9425  -7.9422  -7.9420  -7.9418  -7.9417  -7.9409
    -7.9399  -7.8861  -7.8859  -7.8856  -7.8856  -7.8851  -7.8851  -7.8843
    -7.8835  -7.5845  -7.5839  -7.5834  -7.5826  -7.4329  -7.4327  -7.1656
    -7.1650  -7.1056  -7.1052  -7.1050  -7.1044  -6.9710  -6.9707  -6.9701
    -6.9694  -6.7969  -6.7961  -6.7955  -6.7952  -6.7950  -6.7948  -6.7944
    -6.7939  -6.7329  -6.6778  -6.6770  -6.6770  -6.6770  -6.5964  -6.5956
    -6.5955  -6.5950  -6.5948  -6.5947  -6.5946  -6.5944  -6.5867  -6.5860
    -6.5853  -6.5842  -6.5755  -6.5749  -6.5744  -6.5744  -6.5743  -6.5742
    -6.5738  -6.5731  -6.5019  -6.5014  -6.5010  -6.5008  -6.5007  -6.5005
    -6.5002  -6.4996   0.4399   0.4859   0.4867   1.2360   1.2372   1.2374
     1.2376   1.2378   1.2381   1.2385   1.2388   1.2929   1.2948   1.2955
     1.2960   1.3115   1.3127   1.3129   1.3134   1.3135   1.3137   1.3140
     1.3148   1.8132   1.8144   1.8146   1.8148   1.8149   1.8153   1.8157
     1.8163   2.2351   2.2365   2.2368   2.2376   2.8203   2.8208   2.8209
     2.8215   2.8215   2.8219   2.8224   2.8233   3.3708   3.3714   3.4054
     3.4061   3.4065   3.4068   3.6823   3.6827   3.6833   3.6839   3.8360
     3.8362   3.8367   3.8368   3.8371   3.8372   3.8377   3.8381   4.1546
     4.1550   4.1554   4.1555   4.1559   4.1560   4.1560   4.1564   4.6113
     4.6117   4.6119   4.6120   4.6121   4.6121   4.6125   4.6132   4.9210
     4.9213   4.9217   4.9219   4.9221   4.9223   4.9225   4.9226   4.9274
     4.9274   5.0083   5.0088   5.0090   5.0091   5.0093   5.0094   5.0097
     5.0100   5.2203   5.2212   5.4182   5.4189   5.4193   5.4201   5.5937
     5.5939   5.5940   5.5943   5.5944   5.5944   5.5948   5.5951   5.5983
     5.5985   5.5988   5.5994   5.6675   5.6677   5.6678   5.6681   5.6681
     5.6685   5.6689   5.6696   5.7513   5.8844   5.8850   5.8853   5.8858
     6.1699   6.1705   6.1708   6.1719   6.1902   6.3685   6.3698   6.3700
     6.3703   6.4039   6.4042   6.4806   6.4815   6.4820   6.4822   6.4826
     6.4832   6.4833   6.4835   6.4836   6.4843   6.4843   6.4847   6.6771
     6.6772   6.6775   6.6775   6.6779   6.6782   6.6793   6.6799   6.7644
     6.7648   6.7654   6.7661   7.0548   7.0553   7.0561   7.0570   7.0648
     7.0654   7.0658   7.0664   7.1749   7.2109   7.2117   7.2119   7.2130
     7.2481   7.2484   7.5774   7.5777   7.5779   7.5784   7.6372   7.6377
     7.6380   7.6389   7.8604   7.8607   7.8611   7.8614   7.8614   7.8617
     7.8619   7.8621   7.9046   7.9052   7.9054   7.9056   7.9058   7.9058
     7.9061   7.9067   8.0727   8.0933   8.0942   8.0945   8.0946   8.0946
     8.0948   8.0951   8.0952   8.1637   8.1642   8.1644   8.1648   8.3027
     8.3031   8.3038   8.3042   8.4449   8.4457   8.4460   8.4467   8.4862
     8.4876   8.4877   8.4878   8.4880   8.4882   8.4884   8.4885   8.5172
     8.5173   8.6109   8.6111   8.6116   8.6119   8.6257   8.6263   8.6266
     8.6273   8.6503   8.6506   8.6507   8.6509   8.6511   8.6514   8.6515
     8.6519   8.7157   8.7163   8.7171   8.7177   8.9314   8.9317   8.9322
     8.9322   8.9326   8.9329   8.9332   8.9340   9.0444   9.0445   9.0449
     9.0450   9.0453   9.0454   9.0457   9.0463   9.1440   9.1442   9.1442
     9.1444   9.1533   9.1537   9.1539   9.1541   9.1542   9.1545   9.1547
     9.1548   9.2553   9.2559   9.2561   9.2561   9.2565   9.2565   9.2569
     9.2572   9.2852   9.2856   9.2861   9.2865   9.4636   9.4637   9.5294
     9.5299   9.5303   9.5313   9.5394   9.5394   9.5401   9.5402   9.5406
     9.5407   9.5417   9.5417   9.5837   9.5841   9.5843   9.5843   9.5847
     9.5849   9.5854   9.5854   9.6806   9.6810   9.6814   9.6818   9.7106
     9.7108   9.9185   9.9197   9.9202   9.9214  10.4933

          k = 0.0000 0.0000-0.3248 ( 83134 PWs)   bands (ev):

   -14.2827 -14.2819 -14.2486 -14.2481 -14.2478 -14.2470 -14.2268 -14.2265
   -14.2262 -14.2260 -14.2259 -14.2257 -14.2256 -14.2255 -14.2246 -14.2245
   -14.2241 -14.2233 -14.2136 -14.2132 -14.2116 -14.2110 -14.2035 -14.2031
   -14.2012 -14.2012 -14.2007 -14.2006 -14.1983 -14.1982 -14.1979 -14.1978
   -14.1967 -14.1965 -14.1965 -14.1964 -14.1959 -14.1956 -14.1955 -14.1955
   -14.1949 -14.1948 -14.1944 -14.1933 -14.1903 -14.1902 -14.1896 -14.1882
   -14.1707 -14.1703 -14.1699 -14.1691 -14.1315 -14.1306 -14.0852 -14.0851
   -14.0846 -14.0845 -14.0569 -14.0566 -14.0561 -14.0561 -14.0559 -14.0559
   -14.0554 -14.0550 -14.0482 -14.0479 -14.0478 -14.0475 -14.0464 -14.0464
   -14.0461 -14.0455 -14.0110 -14.0108 -14.0107 -14.0106 -13.9968 -13.9966
   -13.9958 -13.9958 -13.9956 -13.9956 -13.9951 -13.9948 -13.9914 -13.9901
   -13.9900 -13.9891 -13.9886 -13.9885 -13.9881 -13.9879 -13.9875 -13.9874
   -13.9870 -13.9864 -13.9864 -13.9862 -13.9859 -13.9855 -13.9853 -13.9851
   -13.9846 -13.9842 -13.9831 -13.9828 -13.9824 -13.9821 -13.9814 -13.9810
   -13.9794 -13.9775 -13.9725 -13.9718 -13.9708 -13.9699 -13.9680 -13.9673
   -13.9576 -13.9571 -13.9568 -13.9557 -13.9416 -13.9402 -13.9391 -13.9388
   -13.9387 -13.9382 -13.9381 -13.9378 -13.9372 -13.9372 -13.9369 -13.9369
   -13.9367 -13.9364 -13.9363 -13.9362 -13.9358 -13.9358 -13.9355 -13.9354
   -13.9352 -13.9352 -13.9348 -13.9348 -13.9347 -13.9347 -13.9345 -13.9343
   -13.9340 -13.9339 -13.9338 -13.9332 -13.9329 -13.9328 -13.9325 -13.9322
   -13.9313 -13.9298 -13.9223 -13.9221 -13.9216 -13.9214 -13.9207 -13.9207
   -13.9202 -13.9201 -13.9200 -13.9199 -13.9199 -13.9197 -13.9194 -13.9194
   -13.9189 -13.9188 -13.9186 -13.9185 -13.9177 -13.9173 -13.9157 -13.9153
   -13.9152 -13.9150 -13.9150 -13.9147 -13.9144 -13.9143 -13.9135 -13.9135
   -13.9128 -13.9128 -13.9124 -13.9124 -13.9121 -13.9120 -13.9107 -13.9077
   -13.9072 -13.9065 -13.9061 -13.9054 -13.9025 -13.9015 -13.9011 -13.9009
   -13.9007 -13.9006 -13.8998 -13.8997 -13.8986 -13.8984 -13.8965 -13.8960
   -13.8951 -13.8949 -13.8947 -13.8944 -13.8941 -13.8939 -13.8933 -13.8933
   -13.8932 -13.8931 -13.8929 -13.8928 -13.8928 -13.8927 -13.8925 -13.8920
   -13.8919 -13.8918 -13.8916 -13.8916 -13.8915 -13.8911 -13.8910 -13.8901
   -13.8896 -13.8892 -13.8892 -13.8891 -13.8884 -13.8883 -13.8882 -13.8879
   -13.8873 -13.8871 -13.8870 -13.8870 -13.8869 -13.8868 -13.8867 -13.8865
   -13.8864 -13.8862 -13.8862 -13.8860 -13.8860 -13.8855 -13.8853 -13.8849
   -13.8848 -13.8839 -13.8837 -13.8836 -13.8824 -13.8780 -10.1385 -10.1378
    -9.6714  -9.6711  -9.6708  -9.6704  -9.2364  -9.2359  -9.0908  -9.0906
    -9.0900  -9.0899  -8.8657  -8.8648  -8.8641  -8.8637  -8.7265  -8.7262
    -8.7261  -8.7260  -8.7260  -8.7256  -8.7247  -8.7247  -8.4840  -8.4833
    -8.4831  -8.4818  -8.3886  -8.3885  -8.3884  -8.3878  -8.1804  -8.1801
    -8.1797  -8.1792  -8.1785  -8.1785  -8.1776  -8.1773  -7.8799  -7.8798
    -7.8795  -7.8794  -7.8793  -7.8792  -7.8783  -7.8772  -7.8408  -7.8396
    -7.4108  -7.4108  -7.4104  -7.4097  -7.3734  -7.3729  -7.3721  -7.3710
    -7.3436  -7.3429  -7.3167  -7.3162  -7.3157  -7.3152  -6.8051  -6.8046
    -6.7411  -6.7405  -6.7400  -6.7396  -6.7388  -6.7385  -6.7381  -6.7377
    -6.6857  -6.6847  -6.6843  -6.6841  -6.6837  -6.6836  -6.6836  -6.6831
    -6.6730  -6.6721  -6.6716  -6.6710  -6.6470  -6.6464  -6.6460  -6.6456
    -6.5900  -6.5887  -6.5819  -6.5816  -6.5812  -6.5812  -6.5091  -6.5087
    -6.5085  -6.5085  -6.5015  -6.5014  -6.5008  -6.5006  -6.5005  -6.5003
    -6.5000  -6.4993   0.6591   0.6607   0.7083   0.7093   0.7096   0.7102
     1.2556   1.2569   1.2571   1.2572   1.2572   1.2578   1.2580   1.2584
     1.4050   1.4061   1.4062   1.4067   1.4076   1.4080   1.4083   1.4087
     1.5528   1.5543   1.5547   1.5554   2.1267   2.1272   2.1273   2.1283
     2.2549   2.2559   2.4270   2.4279   2.4280   2.4282   2.4283   2.4284
     2.4290   2.4297   3.0941   3.0948   3.0962   3.0970   3.2188   3.2190
     3.2194   3.2203   3.5675   3.5680   3.5686   3.5690   3.6747   3.6749
     3.6752   3.6754   3.9023   3.9023   3.9026   3.9029   3.9030   3.9035
     3.9037   3.9040   4.4045   4.4048   4.4051   4.4052   4.5706   4.5708
     4.8113   4.8117   4.8119   4.8122   4.8136   4.8137   4.8140   4.8141
     4.8614   4.8619   4.8621   4.8621   4.8623   4.8625   4.8625   4.8634
     5.2088   5.2088   5.2090   5.2091   5.2543   5.2544   5.2545   5.2546
     5.2550   5.2551   5.2554   5.2555   5.3811   5.3821   5.6207   5.6213
     5.6216   5.6216   5.6219   5.6223   5.6224   5.6225   5.6232   5.6233
     5.6235   5.6254   5.6409   5.6413   5.6413   5.6418   5.6422   5.6423
     5.6427   5.6436   5.6525   5.6529   5.6532   5.6535   5.7874   5.7877
     5.7882   5.7883   5.7884   5.7886   5.7888   5.7893   5.8577   5.8586
     5.9300   5.9305   5.9318   5.9328   6.2532   6.2535   6.2539   6.2549
     6.4394   6.4399   6.6489   6.6498   6.7089   6.7097   6.7860   6.7872
     6.7884   6.7888   6.9270   6.9283   6.9285   6.9286   7.1861   7.1866
     7.1868   7.1884   7.1919   7.1920   7.1924   7.1930   7.3352   7.3356
     7.3357   7.3358   7.3565   7.3580   7.3586   7.3587   7.3588   7.3588
     7.3595   7.3600   7.4247   7.4252   7.4256   7.4261   7.5546   7.5554
     7.5635   7.5639   7.5639   7.5642   7.6923   7.6938   7.6939   7.6940
     7.6941   7.6943   7.6945   7.6950   7.7607   7.7607   7.7611   7.7617
     8.0689   8.0691   8.0705   8.0706   8.1296   8.1297   8.1300   8.1304
     8.2146   8.2151   8.2152   8.2152   8.2154   8.2155   8.2159   8.2165
     8.2221   8.2225   8.2229   8.2230   8.4165   8.4170   8.4173   8.4175
     8.4178   8.4181   8.4184   8.4185   8.4961   8.4968   8.4979   8.4988
     8.5241   8.5244   8.5250   8.5254   8.5453   8.5462   8.6491   8.6495
     8.6903   8.6910   8.7132   8.7141   8.7148   8.7149   8.7354   8.7357
     8.7358   8.7360   8.9732   8.9738   8.9739   8.9739   8.9743   8.9743
     8.9748   8.9752   8.9829   8.9831   8.9834   8.9836   8.9836   8.9839
     8.9846   8.9850   9.0335   9.0345   9.0831   9.0832   9.0838   9.0840
     9.1724   9.1725   9.1729   9.1733   9.1880   9.1883   9.1884   9.1886
     9.1887   9.1889   9.1893   9.1894   9.2744   9.2747   9.2758   9.2768
     9.3402   9.3405   9.3408   9.3408   9.4215   9.4218   9.4221   9.4222
     9.4226   9.4228   9.4231   9.4233   9.5124   9.5126   9.5131   9.5132
     9.5198   9.5204   9.5209   9.5217   9.5677   9.5680   9.5685   9.5685
     9.5687   9.5687   9.5697   9.5698   9.6940   9.6945   9.7011   9.7018
     9.8159   9.8168   9.8170   9.8185  10.3164  10.3175

          k = 0.0000-0.3248-0.3248 ( 83080 PWs)   bands (ev):

   -14.2756 -14.2744 -14.2735 -14.2722 -14.2197 -14.2191 -14.2190 -14.2186
   -14.2185 -14.2182 -14.2178 -14.2176 -14.2175 -14.2175 -14.2168 -14.2167
   -14.2166 -14.2166 -14.2161 -14.2160 -14.2159 -14.2159 -14.2155 -14.2155
   -14.2155 -14.2154 -14.2150 -14.2147 -14.2141 -14.2118 -14.2089 -14.2087
   -14.2081 -14.2080 -14.2072 -14.2071 -14.2062 -14.2052 -14.1826 -14.1824
   -14.1824 -14.1821 -14.1817 -14.1813 -14.1813 -14.1811 -14.1806 -14.1805
   -14.1800 -14.1782 -14.1416 -14.1405 -14.1396 -14.1382 -14.0847 -14.0842
   -14.0836 -14.0834 -14.0829 -14.0829 -14.0820 -14.0817 -14.0604 -14.0601
   -14.0600 -14.0600 -14.0210 -14.0204 -14.0199 -14.0197 -14.0196 -14.0193
   -14.0192 -14.0190 -14.0185 -14.0185 -14.0185 -14.0184 -14.0177 -14.0176
   -14.0171 -14.0167 -13.9911 -13.9909 -13.9903 -13.9903 -13.9896 -13.9892
   -13.9892 -13.9891 -13.9884 -13.9884 -13.9883 -13.9881 -13.9877 -13.9870
   -13.9870 -13.9869 -13.9865 -13.9862 -13.9857 -13.9857 -13.9856 -13.9848
   -13.9842 -13.9840 -13.9832 -13.9824 -13.9821 -13.9818 -13.9811 -13.9787
   -13.9778 -13.9776 -13.9730 -13.9727 -13.9720 -13.9719 -13.9712 -13.9711
   -13.9701 -13.9688 -13.9448 -13.9436 -13.9428 -13.9413 -13.9403 -13.9390
   -13.9378 -13.9376 -13.9376 -13.9371 -13.9369 -13.9368 -13.9359 -13.9359
   -13.9358 -13.9357 -13.9356 -13.9354 -13.9350 -13.9350 -13.9350 -13.9349
   -13.9347 -13.9347 -13.9342 -13.9342 -13.9338 -13.9336 -13.9334 -13.9332
   -13.9331 -13.9331 -13.9325 -13.9324 -13.9324 -13.9323 -13.9314 -13.9310
   -13.9308 -13.9290 -13.9232 -13.9231 -13.9225 -13.9224 -13.9221 -13.9220
   -13.9219 -13.9216 -13.9181 -13.9180 -13.9177 -13.9176 -13.9166 -13.9158
   -13.9158 -13.9152 -13.9151 -13.9151 -13.9147 -13.9147 -13.9144 -13.9144
   -13.9143 -13.9141 -13.9140 -13.9139 -13.9138 -13.9135 -13.9135 -13.9133
   -13.9132 -13.9132 -13.9130 -13.9130 -13.9125 -13.9122 -13.9122 -13.9117
   -13.9109 -13.9072 -13.9024 -13.9021 -13.9010 -13.9009 -13.8999 -13.8996
   -13.8988 -13.8985 -13.8982 -13.8982 -13.8979 -13.8977 -13.8974 -13.8973
   -13.8971 -13.8970 -13.8969 -13.8968 -13.8965 -13.8964 -13.8963 -13.8961
   -13.8961 -13.8959 -13.8954 -13.8954 -13.8952 -13.8947 -13.8934 -13.8925
   -13.8912 -13.8912 -13.8909 -13.8904 -13.8899 -13.8897 -13.8893 -13.8890
   -13.8889 -13.8888 -13.8888 -13.8888 -13.8882 -13.8881 -13.8880 -13.8880
   -13.8879 -13.8875 -13.8874 -13.8874 -13.8874 -13.8871 -13.8869 -13.8868
   -13.8866 -13.8865 -13.8863 -13.8861 -13.8858 -13.8856 -13.8856 -13.8848
   -13.8847 -13.8842 -13.8834 -13.8834 -13.8828 -13.8781 -10.0200 -10.0194
   -10.0184 -10.0172  -9.1337  -9.1332  -9.1329  -9.1322  -9.1321  -9.1314
    -9.1311  -9.1310  -8.9975  -8.9966  -8.9965  -8.9963  -8.9955  -8.9954
    -8.9943  -8.9939  -8.6663  -8.6655  -8.3266  -8.3260  -8.3256  -8.3255
    -8.3253  -8.3253  -8.3250  -8.3247  -8.3246  -8.3246  -8.3244  -8.3240
    -8.3237  -8.3236  -8.3222  -8.3219  -8.0925  -8.0922  -8.0921  -8.0912
    -7.9333  -7.9330  -7.9324  -7.9316  -7.6329  -7.6324  -7.5313  -7.5309
    -7.5309  -7.5306  -7.5300  -7.5300  -7.5288  -7.5282  -7.4846  -7.4841
    -7.4835  -7.4828  -6.9786  -6.9781  -6.9774  -6.9771  -6.9766  -6.9761
    -6.9756  -6.9744  -6.8340  -6.8331  -6.8330  -6.8330  -6.7179  -6.7171
    -6.7166  -6.7162  -6.7160  -6.7158  -6.7155  -6.7149  -6.5819  -6.5810
    -6.5804  -6.5798  -6.5797  -6.5796  -6.5794  -6.5793  -6.5789  -6.5788
    -6.5788  -6.5787  -6.5781  -6.5780  -6.5775  -6.5765  -6.5544  -6.5533
    -6.5525  -6.5508  -6.5083  -6.5077  -6.5070  -6.5069  -6.5068  -6.5067
    -6.5065  -6.5061   0.8566   0.8587   0.8588   0.8590   0.8596   0.8599
     0.8607   0.8615   0.8932   0.8956   0.8963   0.8974   1.2659   1.2666
     1.2668   1.2673   1.7961   1.7976   1.7978   1.7982   1.7983   1.7984
     1.7986   1.7990   1.7991   1.7991   1.7992   1.7997   1.7999   1.8001
     1.8005   1.8012   2.5020   2.5036   2.5041   2.5044   2.5051   2.5052
     2.5059   2.5067   3.0220   3.0228   3.0229   3.0234   3.0234   3.0235
     3.0246   3.0255   3.4796   3.4802   3.9776   3.9777   3.9782   3.9783
     3.9785   3.9788   3.9789   3.9789   4.2321   4.2325   4.2328   4.2332
     4.2333   4.2334   4.2336   4.2338   4.2339   4.2339   4.2340   4.2343
     4.2344   4.2345   4.2347   4.2350   4.4256   4.4264   4.4268   4.4274
     4.7479   4.7481   4.7483   4.7483   5.2379   5.2389   5.2391   5.2397
     5.3449   5.3451   5.3455   5.3455   5.3457   5.3461   5.3463   5.3465
     5.4216   5.4217   5.4222   5.4222   5.4224   5.4225   5.4228   5.4233
     5.4390   5.4395   5.4398   5.4400   5.4401   5.4401   5.4403   5.4405
     5.4408   5.4408   5.4412   5.4413   5.4414   5.4418   5.4424   5.4436
     5.5634   5.5643   5.9614   5.9618   5.9627   5.9644   6.2002   6.2004
     6.2007   6.2007   6.2008   6.2008   6.2018   6.2023   6.3291   6.3311
     6.3318   6.3318   6.3321   6.3323   6.3325   6.3328   6.4763   6.4766
     6.4776   6.4777   6.4780   6.4784   6.4791   6.4800   6.5931   6.5946
     6.5948   6.5949   6.6422   6.6430   6.6439   6.6449   6.6912   6.6921
     6.6922   6.6929   6.6931   6.6939   6.6944   6.6953   6.8227   6.8228
     6.8235   6.8236   6.8408   6.8416   7.5992   7.5996   7.6004   7.6017
     7.7365   7.7374   7.7383   7.7392   7.7789   7.7792   7.7798   7.7798
     7.7804   7.7809   7.7810   7.7821   7.8448   7.8452   7.8461   7.8462
     7.8463   7.8468   7.8474   7.8479   7.9354   7.9358   7.9367   7.9367
     7.9370   7.9372   7.9373   7.9375   8.2066   8.2078   8.2087   8.2087
     8.2089   8.2090   8.2092   8.2093   8.2094   8.2096   8.2096   8.2098
     8.2099   8.2103   8.2104   8.2109   8.2297   8.2297   8.4161   8.4164
     8.4903   8.4911   8.4916   8.4921   8.6291   8.6300   8.6303   8.6309
     8.6311   8.6317   8.6319   8.6333   8.6664   8.6670   8.6671   8.6679
     8.6835   8.6841   8.6841   8.6844   8.6847   8.6849   8.6850   8.6851
     8.6853   8.6854   8.6856   8.6856   8.6860   8.6860   8.6863   8.6875
     8.7070   8.7081   8.7086   8.7092   9.0713   9.0718   9.0784   9.0788
     9.0791   9.0793   9.0797   9.0797   9.0802   9.0804   9.1738   9.1740
     9.1741   9.1742   9.1747   9.1750   9.1753   9.1753   9.3072   9.3075
     9.3076   9.3080   9.3111   9.3114   9.3115   9.3116   9.3736   9.3741
     9.3747   9.3749   9.3753   9.3754   9.3756   9.3758   9.3759   9.3760
     9.3762   9.3765   9.3769   9.3773   9.3781   9.3785   9.5506   9.5508
     9.5517   9.5518   9.5527   9.5528   9.5538   9.5545   9.5628   9.5633
     9.5637   9.5641   9.5646   9.5650   9.5658   9.5667   9.5916   9.5920
     9.5929   9.5932  10.1709  10.1722  10.1731  10.1750

          k = 0.3333 0.0000 0.0000 ( 83060 PWs)   bands (ev):

   -14.2716 -14.2697 -14.2696 -14.2690 -14.2688 -14.2649 -14.2646 -14.2644
   -14.2637 -14.2601 -14.2599 -14.2597 -14.2585 -14.2379 -14.2376 -14.2370
   -14.2363 -14.2316 -14.2310 -14.2274 -14.2267 -14.2261 -14.2255 -14.2072
   -14.2069 -14.2063 -14.2055 -14.2002 -14.1868 -14.1863 -14.1856 -14.1853
   -14.1645 -14.1644 -14.1638 -14.1637 -14.1626 -14.1622 -14.1618 -14.1609
   -14.1382 -14.1380 -14.1378 -14.1377 -14.1374 -14.1369 -14.1367 -14.1361
   -14.1192 -14.1188 -14.1183 -14.1182 -14.0999 -14.0999 -14.0987 -14.0972
   -14.0969 -14.0962 -14.0951 -14.0680 -14.0677 -14.0676 -14.0669 -14.0529
   -14.0525 -14.0522 -14.0519 -14.0479 -14.0331 -14.0326 -14.0322 -14.0318
   -14.0317 -14.0311 -14.0308 -14.0304 -14.0290 -14.0222 -14.0220 -14.0215
   -14.0206 -14.0200 -14.0196 -14.0192 -14.0191 -14.0190 -14.0184 -14.0182
   -14.0181 -14.0177 -14.0176 -14.0171 -14.0165 -14.0157 -14.0127 -14.0086
   -14.0040 -14.0033 -14.0026 -14.0021 -13.9950 -13.9950 -13.9942 -13.9937
   -13.9838 -13.9833 -13.9826 -13.9825 -13.9819 -13.9688 -13.9684 -13.9676
   -13.9668 -13.9666 -13.9662 -13.9655 -13.9645 -13.9586 -13.9573 -13.9569
   -13.9565 -13.9556 -13.9517 -13.9513 -13.9504 -13.9497 -13.9496 -13.9493
   -13.9491 -13.9489 -13.9487 -13.9484 -13.9483 -13.9477 -13.9477 -13.9475
   -13.9473 -13.9466 -13.9460 -13.9455 -13.9451 -13.9448 -13.9440 -13.9434
   -13.9433 -13.9431 -13.9429 -13.9427 -13.9423 -13.9416 -13.9409 -13.9401
   -13.9384 -13.9379 -13.9375 -13.9373 -13.9368 -13.9362 -13.9357 -13.9352
   -13.9280 -13.9244 -13.9226 -13.9221 -13.9195 -13.9194 -13.9182 -13.9177
   -13.9169 -13.9165 -13.9164 -13.9163 -13.9156 -13.9151 -13.9148 -13.9144
   -13.9140 -13.9125 -13.9120 -13.9114 -13.9112 -13.9098 -13.9094 -13.9092
   -13.9086 -13.9081 -13.9044 -13.9037 -13.9035 -13.9023 -13.9018 -13.9016
   -13.9014 -13.9012 -13.9008 -13.9008 -13.9006 -13.9004 -13.9003 -13.9000
   -13.8999 -13.8998 -13.8995 -13.8993 -13.8993 -13.8992 -13.8988 -13.8982
   -13.8960 -13.8958 -13.8953 -13.8952 -13.8949 -13.8947 -13.8943 -13.8942
   -13.8939 -13.8935 -13.8933 -13.8933 -13.8930 -13.8929 -13.8928 -13.8925
   -13.8922 -13.8921 -13.8918 -13.8917 -13.8916 -13.8912 -13.8910 -13.8908
   -13.8906 -13.8903 -13.8902 -13.8898 -13.8892 -13.8892 -13.8890 -13.8887
   -13.8886 -13.8884 -13.8881 -13.8881 -13.8880 -13.8878 -13.8874 -13.8873
   -13.8872 -13.8870 -13.8869 -13.8868 -13.8867 -13.8867 -13.8866 -13.8863
   -13.8863 -13.8862 -13.8857 -13.8856 -13.8849 -13.8848 -13.8848 -13.8848
   -13.8847 -13.8841 -13.8836 -13.8829 -13.8824 -13.8777 -10.1348  -9.7694
    -9.6694  -9.6689  -9.6685  -9.6679  -9.3276  -9.3271  -9.3267  -9.3260
    -9.2317  -9.2312  -9.2309  -9.2308  -8.9259  -8.9255  -8.9250  -8.9250
    -8.4590  -8.4449  -8.4446  -8.4440  -8.4435  -8.3937  -8.3931  -8.3927
    -8.3917  -8.2443  -8.2436  -8.2434  -8.2424  -8.1849  -8.1842  -8.1837
    -8.1829  -8.1764  -8.1759  -8.1756  -8.1749  -8.0619  -8.0615  -8.0609
    -8.0606  -7.8566  -7.8559  -7.8556  -7.8549  -7.8497  -7.8493  -7.8486
    -7.8479  -7.7273  -7.4678  -7.4673  -7.4668  -7.4660  -7.3210  -7.3207
    -7.1632  -7.1628  -7.1621  -7.1613  -7.0286  -7.0283  -7.0183  -7.0180
    -7.0179  -7.0172  -6.9046  -6.9043  -6.9037  -6.9031  -6.8618  -6.8015
    -6.8014  -6.8012  -6.8004  -6.7544  -6.7452  -6.7450  -6.7444  -6.7438
    -6.5569  -6.5562  -6.5555  -6.5546  -6.5407  -6.5402  -6.5392  -6.5388
    -6.5355  -6.5351  -6.5345  -6.5338  -6.5061  -6.5054  -6.5048  -6.5041
    -6.5035  -6.5031  -6.5028  -6.5019  -6.4749  -6.4743  -6.4741  -6.4732
    -6.4333  -6.4329   0.3944   0.4240   0.7552   0.7556   0.7557   0.7564
     0.9534   1.2347   1.2357   1.2362   1.2365   1.3254   1.3272   1.3279
     1.3284   1.3599   1.3610   1.3617   1.3622   1.3910   1.3915   1.3919
     1.3928   1.8772   1.8780   1.8783   1.8785   1.8790   1.8792   1.8794
     1.8802   1.9345   2.1877   2.1889   2.1893   2.1901   2.6559   2.6567
     2.6571   2.6576   3.3892   3.3898   3.3902   3.3908   3.4921   3.4927
     3.4932   3.4934   3.6183   3.6188   3.6194   3.6195   3.8605   3.8611
     3.8617   3.8623   4.0515   4.0521   4.0526   4.0531   4.2312   4.2313
     4.2318   4.2325   4.2763   4.2770   4.2774   4.2776   4.3366   4.3369
     4.3375   4.3378   4.5205   4.5211   4.5214   4.5221   4.7111   4.7114
     4.7115   4.7122   4.9010   4.9015   4.9016   4.9024   4.9798   4.9801
     5.0483   5.0968   5.0970   5.0974   5.0978   5.1018   5.1020   5.1025
     5.1028   5.1092   5.1294   5.1295   5.1302   5.1306   5.2221   5.3526
     5.3534   5.4833   5.5453   5.5459   5.5464   5.5472   5.7145   5.7153
     5.7822   5.7881   5.7884   5.7889   5.7895   5.8240   5.8246   5.8247
     5.8254   5.9363   5.9367   5.9371   5.9373   5.9825   5.9831   5.9834
     5.9842   6.1904   6.1910   6.1917   6.1923   6.3139   6.3674   6.3677
     6.3682   6.3687   6.4325   6.4327   6.4329   6.4332   6.6295   6.6296
     6.6299   6.6302   6.6755   6.7073   6.7076   6.7087   6.7091   6.7312
     6.7316   6.7320   6.7325   6.7601   6.7767   6.7768   6.7775   6.7783
     6.8113   6.8114   6.8321   6.8331   6.9095   6.9105   6.9112   6.9121
     6.9262   7.1570   7.1576   7.1581   7.1584   7.1600   7.1605   7.1609
     7.1614   7.3749   7.4118   7.4118   7.4124   7.4124   7.4590   7.4591
     7.4594   7.4599   7.7835   7.7839   7.7843   7.7847   7.7961   7.7964
     7.7966   7.7972   7.8628   7.8634   7.8637   7.8644   7.9307   7.9310
     7.9312   7.9316   7.9479   7.9481   7.9692   7.9959   7.9963   7.9968
     7.9971   8.1107   8.1113   8.1116   8.1118   8.2333   8.2335   8.2337
     8.2339   8.2344   8.2347   8.2348   8.2352   8.2456   8.2460   8.2463
     8.2469   8.3089   8.3091   8.3094   8.3096   8.4068   8.4070   8.4072
     8.4074   8.4951   8.4955   8.4956   8.4963   8.5757   8.5762   8.5768
     8.5770   8.6538   8.6545   8.6548   8.6553   8.7454   8.7641   8.7642
     8.8640   8.8647   8.8650   8.8657   8.8777   8.8783   8.8786   8.8791
     8.8974   8.8978   8.8983   8.8988   8.9865   8.9868   8.9872   8.9875
     8.9909   8.9915   8.9920   8.9925   8.9987   8.9992   8.9996   8.9996
     9.0336   9.0337   9.0337   9.0343   9.1438   9.1441   9.1448   9.1453
     9.1725   9.1730   9.1733   9.1738   9.3015   9.3019   9.3024   9.3028
     9.3063   9.3065   9.3071   9.3075   9.3678   9.3681   9.3685   9.3689
     9.3691   9.3693   9.3698   9.3701   9.4962   9.4962   9.6084   9.6088
     9.6092   9.6096   9.6808   9.6809   9.6875   9.6879   9.6882   9.6889
     9.7471   9.7475   9.7479   9.7484   9.8134   9.8142   9.8149   9.8160
     9.9182   9.9192   9.9198   9.9210  10.0259  10.3769

          k = 0.3333 0.0000-0.3248 ( 83068 PWs)   bands (ev):

   -14.2751 -14.2749 -14.2734 -14.2731 -14.2725 -14.2716 -14.2590 -14.2582
   -14.2509 -14.2506 -14.2491 -14.2488 -14.2471 -14.2467 -14.2461 -14.2456
   -14.2447 -14.2433 -14.2414 -14.2400 -14.2229 -14.2224 -14.2220 -14.2213
   -14.1966 -14.1959 -14.1878 -14.1871 -14.1860 -14.1853 -14.1832 -14.1827
   -14.1811 -14.1804 -14.1799 -14.1798 -14.1654 -14.1654 -14.1453 -14.1448
   -14.1445 -14.1437 -14.1418 -14.1416 -14.1409 -14.1406 -14.1302 -14.1296
   -14.1293 -14.1290 -14.1111 -14.1104 -14.1055 -14.1047 -14.0876 -14.0870
   -14.0787 -14.0781 -14.0779 -14.0775 -14.0768 -14.0766 -14.0761 -14.0750
   -14.0479 -14.0478 -14.0362 -14.0354 -14.0354 -14.0347 -14.0329 -14.0322
   -14.0288 -14.0282 -14.0224 -14.0222 -14.0217 -14.0209 -14.0208 -14.0204
   -14.0202 -14.0200 -14.0199 -14.0193 -14.0193 -14.0188 -14.0187 -14.0185
   -14.0184 -14.0184 -14.0179 -14.0177 -14.0175 -14.0172 -14.0171 -14.0169
   -14.0164 -14.0164 -14.0156 -14.0124 -13.9990 -13.9982 -13.9855 -13.9851
   -13.9824 -13.9818 -13.9811 -13.9810 -13.9778 -13.9768 -13.9711 -13.9706
   -13.9702 -13.9694 -13.9653 -13.9647 -13.9636 -13.9628 -13.9600 -13.9595
   -13.9568 -13.9557 -13.9524 -13.9517 -13.9514 -13.9506 -13.9500 -13.9494
   -13.9488 -13.9487 -13.9484 -13.9483 -13.9481 -13.9479 -13.9476 -13.9468
   -13.9466 -13.9457 -13.9455 -13.9447 -13.9441 -13.9440 -13.9436 -13.9433
   -13.9431 -13.9430 -13.9426 -13.9425 -13.9422 -13.9415 -13.9413 -13.9395
   -13.9394 -13.9372 -13.9370 -13.9363 -13.9361 -13.9353 -13.9330 -13.9322
   -13.9319 -13.9306 -13.9201 -13.9189 -13.9187 -13.9175 -13.9173 -13.9166
   -13.9164 -13.9160 -13.9158 -13.9157 -13.9152 -13.9151 -13.9141 -13.9140
   -13.9136 -13.9130 -13.9122 -13.9120 -13.9110 -13.9094 -13.9079 -13.9073
   -13.9069 -13.9068 -13.9064 -13.9060 -13.9050 -13.9048 -13.9034 -13.9029
   -13.9024 -13.9022 -13.9017 -13.9016 -13.9008 -13.9006 -13.9003 -13.8997
   -13.8994 -13.8993 -13.8990 -13.8986 -13.8979 -13.8970 -13.8968 -13.8962
   -13.8958 -13.8957 -13.8955 -13.8952 -13.8951 -13.8948 -13.8947 -13.8945
   -13.8943 -13.8940 -13.8935 -13.8934 -13.8932 -13.8930 -13.8926 -13.8920
   -13.8919 -13.8917 -13.8914 -13.8913 -13.8911 -13.8905 -13.8904 -13.8901
   -13.8900 -13.8899 -13.8896 -13.8894 -13.8893 -13.8891 -13.8890 -13.8890
   -13.8889 -13.8888 -13.8886 -13.8884 -13.8883 -13.8881 -13.8879 -13.8878
   -13.8878 -13.8876 -13.8875 -13.8874 -13.8872 -13.8871 -13.8867 -13.8865
   -13.8862 -13.8861 -13.8860 -13.8857 -13.8855 -13.8851 -13.8850 -13.8848
   -13.8846 -13.8843 -13.8839 -13.8830 -13.8824 -13.8778 -10.0164 -10.0157
    -9.6566  -9.6560  -9.5551  -9.5548  -9.5544  -9.5540  -9.2217  -9.2215
    -9.2211  -9.2206  -9.1243  -9.1238  -8.8131  -8.8127  -8.7721  -8.7711
    -8.7704  -8.7701  -8.5160  -8.5150  -8.5141  -8.5138  -8.4015  -8.4007
    -8.3888  -8.3881  -8.3879  -8.3866  -8.1921  -8.1918  -8.1915  -8.1907
    -8.1429  -8.1423  -8.1422  -8.1409  -8.0367  -8.0363  -7.9235  -7.9226
    -7.9212  -7.9211  -7.8462  -7.8460  -7.8458  -7.8446  -7.7554  -7.7546
    -7.7436  -7.7425  -7.5155  -7.5146  -7.2770  -7.2765  -7.2756  -7.2746
    -7.2379  -7.2372  -7.2193  -7.2188  -7.2183  -7.2178  -7.0280  -7.0277
    -7.0266  -7.0256  -6.9695  -6.9691  -6.9684  -6.9683  -6.9649  -6.9641
    -6.7467  -6.7463  -6.6321  -6.6312  -6.6307  -6.6303  -6.6118  -6.6115
    -6.5923  -6.5915  -6.5850  -6.5837  -6.5558  -6.5556  -6.5539  -6.5532
    -6.5476  -6.5468  -6.5462  -6.5460  -6.5137  -6.5126  -6.5124  -6.5119
    -6.5061  -6.5056  -6.4964  -6.4956  -6.4954  -6.4944  -6.4609  -6.4601
    -6.4446  -6.4438   0.6505   0.6517   0.6600   0.6613   0.8174   0.8184
     0.8197   0.8200   1.0506   1.0512   1.0516   1.0518   1.0735   1.0743
     1.5124   1.5134   1.5137   1.5144   1.5678   1.5692   1.5696   1.5702
     1.7336   1.7342   1.7794   1.7800   1.7803   1.7808   1.9170   1.9179
     2.2753   2.2760   2.2775   2.2782   2.3158   2.3166   2.3950   2.3955
     2.9128   2.9135   2.9150   2.9157   3.1325   3.1329   3.1334   3.1337
     3.4983   3.4987   3.4994   3.4996   3.6175   3.6176   3.8326   3.8331
     3.8334   3.8341   4.1894   4.1899   4.1916   4.1917   4.2262   4.2270
     4.4532   4.4537   4.4542   4.4546   4.5343   4.5346   4.5879   4.5885
     4.5999   4.6002   4.6007   4.6014   4.6766   4.6767   4.6775   4.6777
     4.6791   4.6793   4.7880   4.7888   4.8178   4.8179   4.9789   4.9793
     4.9794   4.9800   5.0298   5.0300   5.0817   5.0824   5.1145   5.1154
     5.1329   5.1334   5.2434   5.2437   5.2778   5.2781   5.2785   5.2788
     5.3331   5.3337   5.3341   5.3349   5.4313   5.4322   5.6271   5.6278
     5.6284   5.6294   5.6941   5.6945   5.6946   5.6951   5.7846   5.7850
     5.7853   5.7861   5.9541   5.9544   5.9547   5.9556   5.9976   5.9983
     6.0694   6.0704   6.0710   6.0714   6.2142   6.2144   6.2145   6.2151
     6.3704   6.3710   6.4689   6.4691   6.4696   6.4698   6.5051   6.5054
     6.5381   6.5385   6.5446   6.5450   6.5451   6.5454   6.5560   6.5569
     6.5710   6.5716   6.7672   6.7673   6.8804   6.8808   6.8812   6.8819
     7.1037   7.1042   7.1043   7.1050   7.1303   7.1311   7.1313   7.1318
     7.2722   7.2726   7.3087   7.3091   7.3997   7.4000   7.4089   7.4101
     7.4101   7.4104   7.4128   7.4136   7.4421   7.4424   7.4432   7.4442
     7.5281   7.5295   7.5303   7.5304   7.5478   7.5480   7.6609   7.6616
     7.7517   7.7521   7.7525   7.7527   7.8342   7.8349   7.8888   7.8894
     7.8901   7.8902   7.9022   7.9025   8.0053   8.0056   8.0057   8.0063
     8.0271   8.0280   8.0610   8.0612   8.1324   8.1330   8.1498   8.1502
     8.1505   8.1508   8.2197   8.2200   8.2202   8.2204   8.2796   8.2799
     8.3481   8.3485   8.3794   8.3797   8.3801   8.3809   8.4465   8.4470
     8.4473   8.4479   8.4645   8.4647   8.5508   8.5510   8.5513   8.5517
     8.7069   8.7072   8.7075   8.7078   8.7110   8.7116   8.7117   8.7125
     8.7502   8.7503   8.7526   8.7533   8.8682   8.8684   8.8689   8.8692
     8.8694   8.8699   8.8701   8.8707   8.9267   8.9269   8.9275   8.9277
     8.9422   8.9424   9.0113   9.0120   9.0126   9.0136   9.0426   9.0429
     9.0523   9.0528   9.0532   9.0538   9.2343   9.2345   9.2398   9.2401
     9.2403   9.2413   9.3162   9.3170   9.3446   9.3449   9.3459   9.3466
     9.3771   9.3784   9.3787   9.3795   9.3801   9.3815   9.3972   9.3973
     9.3978   9.3986   9.4540   9.4547   9.4776   9.4779   9.4858   9.4860
     9.4865   9.4872   9.4995   9.5002   9.5007   9.5014   9.6316   9.6320
     9.6576   9.6583   9.8247   9.8255   9.8258   9.8268   9.8805   9.8813
     9.8816   9.8828   9.9965   9.9973  10.2550  10.2560

          k = 0.3333-0.3248-0.3248 ( 83032 PWs)   bands (ev):

   -14.2684 -14.2680 -14.2675 -14.2673 -14.2665 -14.2664 -14.2656 -14.2655
   -14.2629 -14.2627 -14.2620 -14.2609 -14.2504 -14.2493 -14.2483 -14.2471
   -14.2420 -14.2418 -14.2332 -14.2329 -14.2323 -14.2312 -14.1958 -14.1946
   -14.1938 -14.1930 -14.1875 -14.1873 -14.1833 -14.1831 -14.1826 -14.1824
   -14.1817 -14.1816 -14.1806 -14.1797 -14.1588 -14.1586 -14.1581 -14.1578
   -14.1571 -14.1570 -14.1562 -14.1558 -14.1202 -14.1200 -14.1179 -14.1169
   -14.1160 -14.1147 -14.1046 -14.1044 -14.1043 -14.1041 -14.0980 -14.0977
   -14.0971 -14.0966 -14.0934 -14.0928 -14.0558 -14.0554 -14.0550 -14.0548
   -14.0540 -14.0540 -14.0533 -14.0525 -14.0374 -14.0368 -14.0361 -14.0354
   -14.0351 -14.0340 -14.0305 -14.0296 -14.0288 -14.0281 -14.0214 -14.0212
   -14.0206 -14.0197 -14.0192 -14.0186 -14.0185 -14.0182 -14.0179 -14.0177
   -14.0172 -14.0169 -14.0167 -14.0167 -14.0163 -14.0157 -14.0149 -14.0118
   -13.9946 -13.9942 -13.9935 -13.9934 -13.9926 -13.9925 -13.9918 -13.9915
   -13.9898 -13.9888 -13.9884 -13.9873 -13.9768 -13.9755 -13.9747 -13.9736
   -13.9665 -13.9664 -13.9605 -13.9601 -13.9594 -13.9593 -13.9586 -13.9584
   -13.9576 -13.9575 -13.9566 -13.9563 -13.9555 -13.9544 -13.9500 -13.9497
   -13.9473 -13.9471 -13.9470 -13.9464 -13.9459 -13.9455 -13.9455 -13.9450
   -13.9448 -13.9448 -13.9446 -13.9446 -13.9440 -13.9439 -13.9439 -13.9438
   -13.9433 -13.9429 -13.9428 -13.9421 -13.9421 -13.9417 -13.9411 -13.9410
   -13.9399 -13.9399 -13.9389 -13.9381 -13.9377 -13.9368 -13.9356 -13.9347
   -13.9339 -13.9323 -13.9210 -13.9203 -13.9196 -13.9192 -13.9165 -13.9164
   -13.9154 -13.9151 -13.9145 -13.9144 -13.9140 -13.9137 -13.9122 -13.9119
   -13.9117 -13.9115 -13.9115 -13.9105 -13.9103 -13.9094 -13.9087 -13.9083
   -13.9040 -13.9034 -13.9030 -13.9027 -13.9020 -13.9014 -13.9012 -13.9010
   -13.9006 -13.9005 -13.9002 -13.9001 -13.8998 -13.8997 -13.8995 -13.8994
   -13.8992 -13.8991 -13.8989 -13.8982 -13.8981 -13.8976 -13.8972 -13.8972
   -13.8965 -13.8961 -13.8959 -13.8954 -13.8953 -13.8946 -13.8939 -13.8937
   -13.8936 -13.8934 -13.8932 -13.8929 -13.8928 -13.8927 -13.8925 -13.8925
   -13.8922 -13.8922 -13.8921 -13.8920 -13.8918 -13.8915 -13.8914 -13.8913
   -13.8909 -13.8907 -13.8907 -13.8902 -13.8901 -13.8899 -13.8898 -13.8893
   -13.8891 -13.8890 -13.8889 -13.8888 -13.8885 -13.8885 -13.8883 -13.8882
   -13.8881 -13.8879 -13.8877 -13.8876 -13.8875 -13.8872 -13.8869 -13.8865
   -13.8864 -13.8858 -13.8856 -13.8855 -13.8850 -13.8850 -13.8849 -13.8846
   -13.8845 -13.8839 -13.8837 -13.8831 -13.8829 -13.8780  -9.8991  -9.8985
    -9.8976  -9.8963  -9.5458  -9.5452  -9.5443  -9.5430  -9.0258  -9.0253
    -9.0250  -9.0243  -9.0242  -9.0234  -9.0232  -9.0231  -8.7280  -8.7273
    -8.7270  -8.7264  -8.7262  -8.7255  -8.7253  -8.7251  -8.5882  -8.5874
    -8.3734  -8.3727  -8.3454  -8.3449  -8.3440  -8.3424  -8.0015  -8.0006
    -8.0004  -7.9998  -7.9997  -7.9989  -7.9987  -7.9979  -7.8813  -7.8810
    -7.8487  -7.8484  -7.8478  -7.8471  -7.7730  -7.7728  -7.7718  -7.7701
    -7.6501  -7.6498  -7.6492  -7.6484  -7.5150  -7.5145  -7.3710  -7.3706
    -7.3700  -7.3692  -7.2063  -7.2059  -7.0743  -7.0739  -7.0732  -7.0725
    -6.9082  -6.9077  -6.9071  -6.9068  -6.9063  -6.9058  -6.9053  -6.9042
    -6.7393  -6.7390  -6.7382  -6.7379  -6.7374  -6.7371  -6.7366  -6.7354
    -6.5745  -6.5741  -6.5373  -6.5361  -6.5354  -6.5340  -6.5227  -6.5221
    -6.5211  -6.5210  -6.5203  -6.5203  -6.5195  -6.5185  -6.5132  -6.5122
    -6.5115  -6.5107  -6.4721  -6.4712  -6.4706  -6.4703  -6.4692  -6.4688
    -6.4685  -6.4670   0.6180   0.6187   0.8835   0.8855   0.8863   0.8874
     0.9004   0.9024   0.9032   0.9043   1.0145   1.0150   1.0158   1.0168
     1.3352   1.3360   1.3363   1.3369   1.3370   1.3376   1.3378   1.3381
     1.9825   1.9830   1.9834   1.9850   2.2635   2.2642   2.3376   2.3386
     2.3391   2.3392   2.3399   2.3400   2.3407   2.3414   2.5026   2.5041
     2.5047   2.5049   2.5056   2.5057   2.5064   2.5072   3.1431   3.1437
     3.8613   3.8617   3.8622   3.8626   4.0351   4.0355   4.0359   4.0364
     4.0715   4.0720   4.0721   4.0728   4.0729   4.0731   4.0734   4.0737
     4.0911   4.0914   4.2668   4.2674   4.2677   4.2681   4.5653   4.5658
     4.5662   4.5664   4.5668   4.5673   4.5676   4.5680   4.7114   4.7119
     4.7125   4.7126   4.7846   4.7851   4.7854   4.7857   4.8030   4.8032
     4.8042   4.8056   5.0708   5.0712   5.0714   5.0716   5.0720   5.0723
     5.0730   5.0742   5.3751   5.3762   5.3763   5.3769   5.4974   5.4980
     5.4986   5.4986   5.4990   5.4996   5.4999   5.5007   5.6744   5.6752
     5.7145   5.7148   5.7681   5.7692   5.7693   5.7700   5.8166   5.8169
     5.8172   5.8178   5.8727   5.8730   5.8736   5.8750   6.0366   6.0368
     6.0373   6.0376   6.2897   6.2905   6.3070   6.3074   6.3078   6.3082
     6.3752   6.3758   6.3761   6.3763   6.3767   6.3771   6.3775   6.3782
     6.3995   6.3998   6.4007   6.4020   6.6752   6.6759   6.6768   6.6778
     6.7383   6.7388   6.7720   6.7727   6.8410   6.8420   6.8427   6.8435
     6.8868   6.8875   6.8879   6.8883   6.9164   6.9165   6.9540   6.9549
     7.1694   7.1698   7.1701   7.1705   7.1705   7.1709   7.1714   7.1718
     7.2551   7.2555   7.4622   7.4624   7.4632   7.4636   7.7182   7.7189
     7.7195   7.7200   7.7202   7.7207   7.7207   7.7216   7.8392   7.8397
     7.8407   7.8416   7.9649   7.9654   7.9660   7.9664   7.9959   7.9968
     7.9973   7.9974   8.0375   8.0381   8.0386   8.0386   8.0391   8.0397
     8.0401   8.0403   8.1083   8.1086   8.1096   8.1098   8.1102   8.1104
     8.1109   8.1111   8.1435   8.1440   8.1447   8.1451   8.2142   8.2150
     8.2150   8.2154   8.3039   8.3049   8.3058   8.3067   8.5084   8.5088
     8.5094   8.5096   8.5099   8.5101   8.5107   8.5113   8.5175   8.5178
     8.5182   8.5185   8.5187   8.5190   8.5195   8.5198   8.7243   8.7249
     8.7256   8.7258   8.7997   8.8004   8.8009   8.8011   8.9309   8.9312
     8.9317   8.9320   8.9324   8.9327   8.9335   8.9340   9.0025   9.0026
     9.0542   9.0545   9.0551   9.0561   9.0864   9.0871   9.0873   9.0877
     9.1092   9.1097   9.2021   9.2025   9.2042   9.2044   9.2432   9.2438
     9.2444   9.2446   9.2581   9.2583   9.2590   9.2593   9.2597   9.2600
     9.2605   9.2615   9.2934   9.2936   9.3769   9.3771   9.4447   9.4450
     9.4458   9.4460   9.5159   9.5164   9.5169   9.5174   9.5177   9.5181
     9.5189   9.5197   9.5773   9.5775   9.5784   9.5787   9.5864   9.5870
     9.5873   9.5877   9.5882   9.5885   9.5894   9.5901   9.9731   9.9743
     9.9752   9.9767  10.1628  10.1640  10.1649  10.1666

          k = 0.0000-0.3248 0.0000 ( 83134 PWs)   bands (ev):

   -14.2833 -14.2812 -14.2490 -14.2489 -14.2472 -14.2465 -14.2268 -14.2266
   -14.2261 -14.2261 -14.2259 -14.2257 -14.2256 -14.2255 -14.2245 -14.2245
   -14.2241 -14.2233 -14.2127 -14.2127 -14.2120 -14.2116 -14.2036 -14.2034
   -14.2015 -14.2014 -14.2003 -14.2001 -14.1983 -14.1979 -14.1977 -14.1976
   -14.1973 -14.1972 -14.1970 -14.1970 -14.1958 -14.1956 -14.1953 -14.1952
   -14.1946 -14.1944 -14.1942 -14.1931 -14.1909 -14.1907 -14.1891 -14.1880
   -14.1711 -14.1710 -14.1692 -14.1686 -14.1321 -14.1301 -14.0855 -14.0855
   -14.0843 -14.0840 -14.0573 -14.0572 -14.0566 -14.0566 -14.0556 -14.0555
   -14.0551 -14.0547 -14.0475 -14.0474 -14.0471 -14.0471 -14.0467 -14.0467
   -14.0466 -14.0460 -14.0111 -14.0109 -14.0108 -14.0107 -13.9970 -13.9967
   -13.9963 -13.9962 -13.9950 -13.9949 -13.9947 -13.9944 -13.9912 -13.9907
   -13.9892 -13.9892 -13.9891 -13.9888 -13.9885 -13.9878 -13.9875 -13.9874
   -13.9871 -13.9871 -13.9865 -13.9861 -13.9855 -13.9852 -13.9851 -13.9843
   -13.9841 -13.9837 -13.9835 -13.9833 -13.9832 -13.9818 -13.9816 -13.9811
   -13.9798 -13.9772 -13.9714 -13.9713 -13.9706 -13.9702 -13.9686 -13.9681
   -13.9580 -13.9577 -13.9561 -13.9552 -13.9416 -13.9402 -13.9392 -13.9388
   -13.9387 -13.9383 -13.9381 -13.9379 -13.9373 -13.9373 -13.9369 -13.9369
   -13.9367 -13.9363 -13.9362 -13.9361 -13.9358 -13.9358 -13.9357 -13.9356
   -13.9353 -13.9352 -13.9349 -13.9347 -13.9346 -13.9346 -13.9345 -13.9345
   -13.9345 -13.9336 -13.9335 -13.9334 -13.9332 -13.9326 -13.9324 -13.9322
   -13.9312 -13.9297 -13.9223 -13.9223 -13.9216 -13.9216 -13.9208 -13.9207
   -13.9202 -13.9202 -13.9198 -13.9197 -13.9195 -13.9195 -13.9192 -13.9192
   -13.9189 -13.9189 -13.9187 -13.9187 -13.9178 -13.9172 -13.9161 -13.9159
   -13.9158 -13.9153 -13.9152 -13.9140 -13.9137 -13.9137 -13.9132 -13.9131
   -13.9130 -13.9130 -13.9126 -13.9125 -13.9121 -13.9118 -13.9108 -13.9077
   -13.9076 -13.9074 -13.9056 -13.9050 -13.9024 -13.9017 -13.9013 -13.9011
   -13.9007 -13.9005 -13.8994 -13.8990 -13.8988 -13.8984 -13.8967 -13.8955
   -13.8953 -13.8951 -13.8950 -13.8947 -13.8944 -13.8942 -13.8941 -13.8938
   -13.8936 -13.8932 -13.8929 -13.8926 -13.8923 -13.8923 -13.8922 -13.8921
   -13.8918 -13.8916 -13.8913 -13.8912 -13.8912 -13.8911 -13.8907 -13.8897
   -13.8891 -13.8890 -13.8887 -13.8885 -13.8884 -13.8882 -13.8881 -13.8880
   -13.8880 -13.8879 -13.8876 -13.8876 -13.8876 -13.8873 -13.8871 -13.8869
   -13.8867 -13.8861 -13.8861 -13.8857 -13.8851 -13.8850 -13.8848 -13.8847
   -13.8846 -13.8843 -13.8842 -13.8836 -13.8823 -13.8780 -10.1391 -10.1372
    -9.6720  -9.6717  -9.6701  -9.6698  -9.2365  -9.2358  -9.0915  -9.0910
    -9.0894  -9.0893  -8.8651  -8.8649  -8.8646  -8.8637  -8.7271  -8.7268
    -8.7268  -8.7261  -8.7251  -8.7250  -8.7245  -8.7242  -8.4844  -8.4834
    -8.4824  -8.4818  -8.3888  -8.3885  -8.3883  -8.3876  -8.1795  -8.1795
    -8.1793  -8.1793  -8.1791  -8.1789  -8.1785  -8.1772  -7.8805  -7.8803
    -7.8800  -7.8794  -7.8787  -7.8785  -7.8778  -7.8774  -7.8413  -7.8392
    -7.4112  -7.4109  -7.4100  -7.4096  -7.3728  -7.3724  -7.3721  -7.3719
    -7.3441  -7.3422  -7.3174  -7.3166  -7.3154  -7.3145  -6.8051  -6.8045
    -6.7408  -6.7396  -6.7393  -6.7392  -6.7391  -6.7389  -6.7389  -6.7387
    -6.6860  -6.6847  -6.6844  -6.6842  -6.6835  -6.6835  -6.6832  -6.6829
    -6.6733  -6.6727  -6.6713  -6.6703  -6.6474  -6.6471  -6.6454  -6.6449
    -6.5904  -6.5884  -6.5822  -6.5820  -6.5813  -6.5808  -6.5090  -6.5087
    -6.5086  -6.5084  -6.5017  -6.5016  -6.5011  -6.5008  -6.5002  -6.5001
    -6.4996  -6.4991   0.6587   0.6611   0.7078   0.7089   0.7102   0.7107
     1.2553   1.2562   1.2566   1.2571   1.2576   1.2581   1.2584   1.2587
     1.4055   1.4067   1.4068   1.4070   1.4072   1.4074   1.4077   1.4084
     1.5523   1.5538   1.5551   1.5560   2.1269   2.1273   2.1274   2.1282
     2.2551   2.2555   2.4270   2.4275   2.4278   2.4284   2.4284   2.4285
     2.4287   2.4297   3.0945   3.0955   3.0959   3.0959   3.2181   3.2189
     3.2201   3.2205   3.5670   3.5676   3.5692   3.5698   3.6746   3.6750
     3.6752   3.6755   3.9021   3.9021   3.9027   3.9029   3.9032   3.9035
     3.9036   3.9041   4.4041   4.4043   4.4056   4.4059   4.5696   4.5712
     4.8124   4.8124   4.8124   4.8125   4.8128   4.8131   4.8133   4.8138
     4.8616   4.8617   4.8620   4.8622   4.8625   4.8626   4.8628   4.8629
     5.2081   5.2089   5.2090   5.2091   5.2540   5.2542   5.2543   5.2546
     5.2551   5.2551   5.2553   5.2562   5.3810   5.3828   5.6206   5.6216
     5.6222   5.6222   5.6222   5.6223   5.6223   5.6224   5.6228   5.6229
     5.6235   5.6242   5.6404   5.6409   5.6417   5.6417   5.6422   5.6424
     5.6436   5.6437   5.6516   5.6522   5.6537   5.6544   5.7873   5.7875
     5.7876   5.7880   5.7884   5.7886   5.7888   5.7905   5.8572   5.8591
     5.9305   5.9313   5.9314   5.9319   6.2526   6.2532   6.2545   6.2553
     6.4390   6.4406   6.6489   6.6498   6.7091   6.7094   6.7868   6.7873
     6.7875   6.7887   6.9275   6.9275   6.9284   6.9291   7.1855   7.1865
     7.1877   7.1883   7.1911   7.1914   7.1931   7.1934   7.3346   7.3353
     7.3358   7.3359   7.3571   7.3583   7.3585   7.3585   7.3589   7.3592
     7.3592   7.3597   7.4242   7.4245   7.4260   7.4268   7.5542   7.5557
     7.5632   7.5634   7.5642   7.5650   7.6921   7.6937   7.6939   7.6939
     7.6940   7.6942   7.6949   7.6949   7.7606   7.7610   7.7610   7.7618
     8.0694   8.0695   8.0700   8.0702   8.1291   8.1298   8.1300   8.1300
     8.2144   8.2145   8.2149   8.2156   8.2159   8.2162   8.2165   8.2169
     8.2216   8.2219   8.2233   8.2239   8.4165   8.4167   8.4173   8.4178
     8.4178   8.4179   8.4185   8.4185   8.4968   8.4974   8.4976   8.4978
     8.5237   8.5242   8.5251   8.5260   8.5447   8.5468   8.6490   8.6494
     8.6903   8.6910   8.7130   8.7137   8.7147   8.7156   8.7348   8.7355
     8.7359   8.7360   8.9734   8.9737   8.9739   8.9740   8.9743   8.9744
     8.9746   8.9748   8.9830   8.9832   8.9835   8.9836   8.9837   8.9838
     8.9844   8.9844   9.0331   9.0348   9.0822   9.0824   9.0846   9.0846
     9.1717   9.1718   9.1737   9.1741   9.1880   9.1885   9.1885   9.1886
     9.1887   9.1888   9.1891   9.1894   9.2750   9.2752   9.2754   9.2762
     9.3403   9.3406   9.3408   9.3413   9.4216   9.4222   9.4223   9.4223
     9.4223   9.4226   9.4228   9.4234   9.5118   9.5119   9.5138   9.5142
     9.5195   9.5199   9.5211   9.5219   9.5672   9.5673   9.5677   9.5678
     9.5694   9.5696   9.5700   9.5702   9.6939   9.6947   9.7007   9.7029
     9.8153   9.8161   9.8175   9.8186  10.3159  10.3184

          k =-0.3333-0.3248 0.0000 ( 83068 PWs)   bands (ev):

   -14.2751 -14.2749 -14.2735 -14.2731 -14.2725 -14.2716 -14.2596 -14.2575
   -14.2504 -14.2504 -14.2498 -14.2495 -14.2468 -14.2462 -14.2458 -14.2454
   -14.2450 -14.2433 -14.2418 -14.2397 -14.2233 -14.2232 -14.2214 -14.2209
   -14.1971 -14.1953 -14.1867 -14.1866 -14.1860 -14.1856 -14.1837 -14.1834
   -14.1814 -14.1811 -14.1795 -14.1793 -14.1653 -14.1653 -14.1456 -14.1455
   -14.1438 -14.1432 -14.1415 -14.1415 -14.1411 -14.1409 -14.1306 -14.1303
   -14.1286 -14.1285 -14.1115 -14.1099 -14.1061 -14.1041 -14.0882 -14.0864
   -14.0790 -14.0789 -14.0775 -14.0774 -14.0766 -14.0763 -14.0761 -14.0749
   -14.0480 -14.0479 -14.0365 -14.0360 -14.0346 -14.0344 -14.0334 -14.0316
   -14.0294 -14.0279 -14.0225 -14.0222 -14.0216 -14.0212 -14.0209 -14.0207
   -14.0202 -14.0200 -14.0198 -14.0195 -14.0194 -14.0188 -14.0183 -14.0183
   -14.0181 -14.0180 -14.0179 -14.0178 -14.0174 -14.0172 -14.0172 -14.0169
   -14.0166 -14.0163 -14.0155 -14.0124 -13.9996 -13.9977 -13.9854 -13.9851
   -13.9825 -13.9820 -13.9810 -13.9808 -13.9781 -13.9761 -13.9716 -13.9715
   -13.9699 -13.9692 -13.9643 -13.9642 -13.9636 -13.9631 -13.9604 -13.9601
   -13.9570 -13.9549 -13.9530 -13.9526 -13.9515 -13.9506 -13.9493 -13.9490
   -13.9488 -13.9488 -13.9486 -13.9484 -13.9478 -13.9475 -13.9471 -13.9470
   -13.9464 -13.9463 -13.9453 -13.9450 -13.9443 -13.9440 -13.9434 -13.9431
   -13.9430 -13.9429 -13.9427 -13.9424 -13.9421 -13.9416 -13.9410 -13.9404
   -13.9391 -13.9373 -13.9370 -13.9368 -13.9352 -13.9348 -13.9336 -13.9324
   -13.9318 -13.9305 -13.9201 -13.9192 -13.9182 -13.9177 -13.9171 -13.9166
   -13.9164 -13.9162 -13.9159 -13.9156 -13.9152 -13.9148 -13.9145 -13.9144
   -13.9137 -13.9123 -13.9122 -13.9120 -13.9109 -13.9094 -13.9083 -13.9076
   -13.9073 -13.9065 -13.9061 -13.9055 -13.9054 -13.9046 -13.9034 -13.9033
   -13.9025 -13.9019 -13.9017 -13.9014 -13.9009 -13.9006 -13.9004 -13.9000
   -13.8996 -13.8993 -13.8990 -13.8986 -13.8975 -13.8973 -13.8970 -13.8967
   -13.8962 -13.8958 -13.8954 -13.8949 -13.8947 -13.8945 -13.8944 -13.8941
   -13.8939 -13.8937 -13.8934 -13.8933 -13.8929 -13.8927 -13.8922 -13.8921
   -13.8920 -13.8918 -13.8915 -13.8913 -13.8911 -13.8910 -13.8909 -13.8905
   -13.8902 -13.8901 -13.8899 -13.8895 -13.8894 -13.8892 -13.8891 -13.8890
   -13.8888 -13.8886 -13.8884 -13.8884 -13.8883 -13.8880 -13.8878 -13.8877
   -13.8876 -13.8875 -13.8874 -13.8873 -13.8871 -13.8869 -13.8868 -13.8867
   -13.8865 -13.8863 -13.8861 -13.8856 -13.8856 -13.8851 -13.8849 -13.8846
   -13.8844 -13.8840 -13.8837 -13.8835 -13.8824 -13.8778 -10.0170 -10.0151
    -9.6572  -9.6554  -9.5557  -9.5553  -9.5538  -9.5535  -9.2224  -9.2220
    -9.2204  -9.2201  -9.1245  -9.1237  -8.8132  -8.8126  -8.7714  -8.7712
    -8.7710  -8.7700  -8.5153  -8.5149  -8.5148  -8.5139  -8.4021  -8.4001
    -8.3892  -8.3882  -8.3872  -8.3867  -8.1928  -8.1923  -8.1908  -8.1903
    -8.1434  -8.1425  -8.1414  -8.1409  -8.0367  -8.0363  -7.9227  -7.9223
    -7.9219  -7.9215  -7.8469  -7.8463  -7.8450  -7.8443  -7.7559  -7.7540
    -7.7441  -7.7421  -7.5158  -7.5144  -7.2765  -7.2760  -7.2757  -7.2756
    -7.2384  -7.2365  -7.2200  -7.2192  -7.2180  -7.2172  -7.0275  -7.0270
    -7.0268  -7.0266  -6.9701  -6.9693  -6.9682  -6.9676  -6.9656  -6.9636
    -6.7467  -6.7462  -6.6324  -6.6318  -6.6304  -6.6296  -6.6118  -6.6116
    -6.5923  -6.5913  -6.5853  -6.5835  -6.5555  -6.5548  -6.5543  -6.5541
    -6.5479  -6.5474  -6.5460  -6.5454  -6.5139  -6.5133  -6.5117  -6.5112
    -6.5062  -6.5057  -6.4968  -6.4963  -6.4948  -6.4939  -6.4616  -6.4595
    -6.4453  -6.4431   0.6500   0.6522   0.6596   0.6618   0.8181   0.8187
     0.8191   0.8196   1.0505   1.0510   1.0518   1.0519   1.0729   1.0749
     1.5119   1.5128   1.5142   1.5149   1.5674   1.5687   1.5700   1.5709
     1.7338   1.7342   1.7794   1.7799   1.7802   1.7809   1.9165   1.9184
     2.2759   2.2766   2.2770   2.2775   2.3159   2.3163   2.3951   2.3954
     2.9133   2.9142   2.9146   2.9148   3.1324   3.1330   3.1333   3.1339
     3.4979   3.4985   3.4998   3.5003   3.6172   3.6178   3.8326   3.8331
     3.8334   3.8340   4.1902   4.1904   4.1908   4.1912   4.2264   4.2269
     4.4532   4.4539   4.4540   4.4545   4.5339   4.5349   4.5878   4.5889
     4.5991   4.6000   4.6011   4.6018   4.6766   4.6768   4.6772   4.6780
     4.6781   4.6797   4.7879   4.7889   4.8176   4.8180   4.9789   4.9791
     4.9796   4.9798   5.0294   5.0301   5.0821   5.0824   5.1148   5.1150
     5.1326   5.1339   5.2434   5.2439   5.2770   5.2776   5.2788   5.2795
     5.3334   5.3339   5.3341   5.3346   5.4315   5.4321   5.6275   5.6282
     5.6285   5.6287   5.6940   5.6942   5.6943   5.6957   5.7847   5.7852
     5.7855   5.7857   5.9533   5.9541   5.9553   5.9561   5.9977   5.9982
     6.0701   6.0703   6.0707   6.0709   6.2137   6.2139   6.2152   6.2155
     6.3707   6.3708   6.4683   6.4687   6.4700   6.4706   6.5050   6.5058
     6.5377   6.5391   6.5442   6.5446   6.5455   6.5459   6.5558   6.5571
     6.5711   6.5715   6.7668   6.7676   6.8806   6.8808   6.8810   6.8818
     7.1030   7.1035   7.1051   7.1053   7.1300   7.1309   7.1316   7.1318
     7.2723   7.2727   7.3086   7.3090   7.3989   7.4003   7.4090   7.4097
     7.4101   7.4104   7.4127   7.4140   7.4423   7.4430   7.4432   7.4436
     7.5291   7.5294   7.5301   7.5303   7.5475   7.5481   7.6603   7.6620
     7.7514   7.7514   7.7530   7.7531   7.8345   7.8348   7.8885   7.8897
     7.8901   7.8902   7.9019   7.9023   8.0049   8.0053   8.0063   8.0065
     8.0266   8.0287   8.0604   8.0616   8.1318   8.1335   8.1500   8.1502
     8.1504   8.1508   8.2192   8.2200   8.2204   8.2206   8.2794   8.2797
     8.3481   8.3485   8.3791   8.3800   8.3802   8.3811   8.4464   8.4469
     8.4474   8.4480   8.4644   8.4648   8.5504   8.5510   8.5522   8.5523
     8.7069   8.7071   8.7074   8.7076   8.7109   8.7112   8.7124   8.7131
     8.7498   8.7504   8.7520   8.7540   8.8678   8.8679   8.8691   8.8695
     8.8696   8.8699   8.8703   8.8705   8.9266   8.9269   8.9272   8.9275
     8.9423   8.9426   9.0119   9.0119   9.0124   9.0129   9.0425   9.0428
     9.0524   9.0526   9.0533   9.0539   9.2343   9.2346   9.2392   9.2397
     9.2408   9.2415   9.3155   9.3175   9.3452   9.3454   9.3455   9.3461
     9.3775   9.3782   9.3791   9.3792   9.3797   9.3814   9.3974   9.3976
     9.3977   9.3984   9.4531   9.4554   9.4780   9.4785   9.4859   9.4862
     9.4864   9.4868   9.4994   9.4997   9.5008   9.5016   9.6316   9.6323
     9.6569   9.6592   9.8243   9.8248   9.8264   9.8270   9.8800   9.8807
     9.8820   9.8829   9.9957   9.9980  10.2544  10.2568

     highest occupied level (ev):    10.4933

!    total energy              =  -13225.90717614 Ry
     estimated scf accuracy    <          5.6E-09 Ry

     The total energy is the sum of the following terms:
     one-electron contribution =   -4400.23370466 Ry
     hartree contribution      =    3316.22665891 Ry
     xc contribution           =   -3278.83618126 Ry
     ewald contribution        =   -8863.06394914 Ry

     convergence has been achieved in  14 iterations

     Forces acting on atoms (cartesian axes, Ry/au):

     atom    1 type  1   force =    -0.00034555    0.00130783    0.00073925
     atom    2 type  1   force =     0.00004000    0.00017902    0.00005738
     atom    3 type  1   force =     0.00042453    0.00130700    0.00073830
     atom    4 type  1   force =     0.00000041   -0.00026261    0.00026639
     atom    5 type  1   force =     0.00004025   -0.00004382    0.00008164
     atom    6 type  1   force =     0.00008027   -0.00026200    0.00026659
     atom    7 type  1   force =     0.00005277   -0.00012864    0.00003098
     atom    8 type  1   force =     0.00004018   -0.00006560   -0.00000285
     atom    9 type  1   force =     0.00002655   -0.00012914    0.00003156
     atom   10 type  1   force =     0.00007096    0.00027331   -0.00007828
     atom   11 type  1   force =     0.00004069    0.00013356    0.00000550
     atom   12 type  1   force =     0.00000919    0.00027387   -0.00007781
     atom   13 type  1   force =     0.00001878   -0.00006968   -0.00007546
     atom   14 type  1   force =     0.00004091   -0.00005233   -0.00004448
     atom   15 type  1   force =     0.00006246   -0.00006935   -0.00007536
     atom   16 type  1   force =     0.00005356   -0.00006301    0.00007560
     atom   17 type  1   force =     0.00004049   -0.00002210    0.00003774
     atom   18 type  1   force =     0.00002710   -0.00006336    0.00007493
     atom   19 type  1   force =     0.00005003    0.00010910   -0.00004823
     atom   20 type  1   force =     0.00004000    0.00006989   -0.00000096
     atom   21 type  1   force =     0.00002961    0.00010916   -0.00004800
     atom   22 type  1   force =     0.00004074    0.00000830    0.00002889
     atom   23 type  1   force =     0.00003955    0.00000242    0.00002964
     atom   24 type  1   force =     0.00004066    0.00000762    0.00002821
     atom   25 type  1   force =     0.00004767   -0.00001925    0.00000965
     atom   26 type  1   force =     0.00004005   -0.00001108    0.00001447
     atom   27 type  1   force =     0.00003230   -0.00001945    0.00000963
     atom   28 type  1   force =    -0.00005601   -0.00043342   -0.00044540
     atom   29 type  1   force =     0.00003522   -0.00000505   -0.00002979
     atom   30 type  1   force =    -0.00014769   -0.00000443   -0.00003012
     atom   31 type  1   force =    -0.00005693    0.00012889    0.00016972
     atom   32 type  1   force =    -0.00004887    0.00006493    0.00006007
     atom   33 type  1   force =    -0.00006391    0.00006450    0.00006018
     atom   34 type  1   force =    -0.00005646   -0.00005541    0.00002214
     atom   35 type  1   force =    -0.00005941   -0.00004517    0.00002069
     atom   36 type  1   force =    -0.00005395   -0.00004484    0.00002177
     atom   37 type  1   force =    -0.00005689   -0.00019793    0.00026118
     atom   38 type  1   force =     0.00018730   -0.00005387    0.00018108
     atom   39 type  1   force =    -0.00029996   -0.00005426    0.00018126
     atom   40 type  1   force =    -0.00005673    0.00095717    0.00050347
     atom   41 type  1   force =    -0.00036050    0.00017111   -0.00005345
     atom   42 type  1   force =     0.00024648    0.00017088   -0.00005316
     atom   43 type  1   force =    -0.00005822   -0.00011747   -0.00004415
     atom   44 type  1   force =    -0.00006162   -0.00009377   -0.00003406
     atom   45 type  1   force =    -0.00005131   -0.00009355   -0.00003428
     atom   46 type  1   force =    -0.00005618    0.00002956    0.00002367
     atom   47 type  1   force =    -0.00005348    0.00002679    0.00002013
     atom   48 type  1   force =    -0.00006009    0.00002738    0.00001994
     atom   49 type  1   force =    -0.00005716    0.00001424   -0.00002437
     atom   50 type  1   force =    -0.00005590    0.00001054   -0.00001708
     atom   51 type  1   force =    -0.00005808    0.00001029   -0.00001750
     atom   52 type  1   force =    -0.00005678   -0.00003591   -0.00000467
     atom   53 type  1   force =    -0.00005704   -0.00003073   -0.00000163
     atom   54 type  1   force =    -0.00005715   -0.00003094   -0.00000192
     atom   55 type  2   force =    -0.00000428   -0.00714435   -0.00466639
     atom   56 type  2   force =     0.00007493   -0.00115822   -0.00108654
     atom   57 type  2   force =    -0.00008603   -0.00115821   -0.00108654
     atom   58 type  2   force =    -0.00000831   -0.00080825   -0.00095924
     atom   59 type  2   force =     0.00004541   -0.00081586   -0.00097539
     atom   60 type  2   force =    -0.00006235   -0.00081600   -0.00097548
     atom   61 type  2   force =    -0.00000616   -0.00053481   -0.00092957
     atom   62 type  2   force =    -0.00005684   -0.00055286   -0.00092048
     atom   63 type  2   force =     0.00004441   -0.00055282   -0.00092052
     atom   64 type  2   force =    -0.00000839   -0.00101204   -0.00088355
     atom   65 type  2   force =     0.00002270   -0.00100653   -0.00087523
     atom   66 type  2   force =    -0.00003958   -0.00100653   -0.00087520
     atom   67 type  2   force =    -0.00001112   -0.00084876   -0.00084810
     atom   68 type  2   force =    -0.00001090   -0.00085617   -0.00085944
     atom   69 type  2   force =    -0.00001137   -0.00085616   -0.00085938
     atom   70 type  2   force =    -0.00000907   -0.00063971   -0.00092600
     atom   71 type  2   force =    -0.00001729   -0.00063662   -0.00091403
     atom   72 type  2   force =    -0.00000067   -0.00063655   -0.00091390
     atom   73 type  2   force =    -0.00000621   -0.00099917   -0.00063717
     atom   74 type  2   force =    -0.00001092   -0.00099372   -0.00065427
     atom   75 type  2   force =    -0.00000146   -0.00099370   -0.00065429
     atom   76 type  2   force =    -0.00000916   -0.00089763   -0.00064933
     atom   77 type  2   force =    -0.00001032   -0.00089496   -0.00064692
     atom   78 type  2   force =    -0.00000757   -0.00089497   -0.00064693
     atom   79 type  2   force =    -0.00000705   -0.00058186   -0.00058116
     atom   80 type  2   force =    -0.00002055   -0.00058874   -0.00059232
     atom   81 type  2   force =     0.00000663   -0.00058874   -0.00059227
     atom   82 type  2   force =     0.00006306    0.00055372   -0.00091481
     atom   83 type  2   force =     0.00001564    0.00065835   -0.00080952
     atom   84 type  2   force =    -0.00003179    0.00055373   -0.00091478
     atom   85 type  2   force =     0.00002379    0.00105488   -0.00087947
     atom   86 type  2   force =     0.00001529    0.00104252   -0.00087463
     atom   87 type  2   force =     0.00000671    0.00105490   -0.00087958
     atom   88 type  2   force =    -0.00007976    0.00088546   -0.00081299
     atom   89 type  2   force =     0.00001296    0.00079217   -0.00080237
     atom   90 type  2   force =     0.00010559    0.00088546   -0.00081299
     atom   91 type  2   force =     0.00023773    0.00055944   -0.00072972
     atom   92 type  2   force =     0.00001749    0.00066295   -0.00101973
     atom   93 type  2   force =    -0.00020258    0.00055946   -0.00072976
     atom   94 type  2   force =     0.00002295    0.00105141   -0.00105440
     atom   95 type  2   force =     0.00001734    0.00104028   -0.00105842
     atom   96 type  2   force =     0.00001181    0.00105128   -0.00105426
     atom   97 type  2   force =     0.00001530    0.00090579   -0.00117308
     atom   98 type  2   force =     0.00001500    0.00081267   -0.00107511
     atom   99 type  2   force =     0.00001479    0.00090581   -0.00117302
     atom  100 type  2   force =     0.00001573    0.00067510   -0.00073915
     atom  101 type  2   force =     0.00001827    0.00067751   -0.00073848
     atom  102 type  2   force =     0.00002080    0.00067509   -0.00073913
     atom  103 type  2   force =     0.00001737    0.00098775   -0.00077236
     atom  104 type  2   force =     0.00001797    0.00098865   -0.00077330
     atom  105 type  2   force =     0.00001840    0.00098771   -0.00077231
     atom  106 type  2   force =     0.00001170    0.00077576   -0.00076267
     atom  107 type  2   force =     0.00001580    0.00077184   -0.00076352
     atom  108 type  2   force =     0.00001980    0.00077575   -0.00076269
     atom  109 type  2   force =    -0.00000674    0.00196401    0.00216001
     atom  110 type  2   force =    -0.00009699    0.00059798    0.00064142
     atom  111 type  2   force =     0.00008355    0.00059794    0.00064143
     atom  112 type  2   force =    -0.00000904    0.00098858    0.00053043
     atom  113 type  2   force =     0.00002370    0.00088946    0.00060042
     atom  114 type  2   force =    -0.00004161    0.00088943    0.00060036
     atom  115 type  2   force =    -0.00000629    0.00106090    0.00069897
     atom  116 type  2   force =    -0.00001628    0.00105904    0.00069528
     atom  117 type  2   force =     0.00000376    0.00105902    0.00069518
     atom  118 type  2   force =    -0.00000896    0.00057344    0.00076467
     atom  119 type  2   force =    -0.00001836    0.00057257    0.00083352
     atom  120 type  2   force =     0.00000040    0.00057252    0.00083346
     atom  121 type  2   force =    -0.00001128    0.00101601    0.00103758
     atom  122 type  2   force =     0.00003418    0.00096368    0.00098494
     atom  123 type  2   force =    -0.00005679    0.00096367    0.00098491
     atom  124 type  2   force =    -0.00000861    0.00105315    0.00091957
     atom  125 type  2   force =    -0.00001708    0.00104084    0.00091704
     atom  126 type  2   force =    -0.00000045    0.00104093    0.00091713
     atom  127 type  2   force =    -0.00000630    0.00066022    0.00101844
     atom  128 type  2   force =    -0.00001824    0.00065566    0.00101485
     atom  129 type  2   force =     0.00000576    0.00065566    0.00101485
     atom  130 type  2   force =    -0.00000874    0.00090876    0.00101451
     atom  131 type  2   force =    -0.00000976    0.00091056    0.00101149
     atom  132 type  2   force =    -0.00000761    0.00091063    0.00101158
     atom  133 type  2   force =    -0.00000606    0.00104595    0.00104139
     atom  134 type  2   force =    -0.00000582    0.00104441    0.00103848
     atom  135 type  2   force =    -0.00000599    0.00104438    0.00103851
     atom  136 type  2   force =    -0.00052462   -0.00026362    0.00040978
     atom  137 type  2   force =     0.00001567   -0.00084195    0.00069599
     atom  138 type  2   force =     0.00055579   -0.00026362    0.00040974
     atom  139 type  2   force =     0.00057307   -0.00048161    0.00082122
     atom  140 type  2   force =     0.00001762   -0.00106455    0.00071369
     atom  141 type  2   force =    -0.00053795   -0.00048159    0.00082114
     atom  142 type  2   force =     0.00001772   -0.00069427    0.00067301
     atom  143 type  2   force =     0.00001824   -0.00069344    0.00067222
     atom  144 type  2   force =     0.00001886   -0.00069418    0.00067289
     atom  145 type  2   force =     0.00000968   -0.00085866    0.00100192
     atom  146 type  2   force =     0.00001520   -0.00086057    0.00100600
     atom  147 type  2   force =     0.00002088   -0.00085878    0.00100202
     atom  148 type  2   force =     0.00002152   -0.00106831    0.00103471
     atom  149 type  2   force =     0.00001739   -0.00107015    0.00102983
     atom  150 type  2   force =     0.00001326   -0.00106831    0.00103473
     atom  151 type  2   force =     0.00001682   -0.00075232    0.00096973
     atom  152 type  2   force =     0.00001792   -0.00075319    0.00097038
     atom  153 type  2   force =     0.00001900   -0.00075236    0.00096981
     atom  154 type  2   force =    -0.00008700   -0.00084629    0.00090927
     atom  155 type  2   force =     0.00001288   -0.00083273    0.00081136
     atom  156 type  2   force =     0.00011287   -0.00084633    0.00090927
     atom  157 type  2   force =     0.00002121   -0.00107855    0.00080186
     atom  158 type  2   force =     0.00001508   -0.00106470    0.00079042
     atom  159 type  2   force =     0.00000879   -0.00107850    0.00080177
     atom  160 type  2   force =     0.00001370   -0.00073812    0.00076638
     atom  161 type  2   force =     0.00001584   -0.00074525    0.00076741
     atom  162 type  2   force =     0.00001774   -0.00073815    0.00076634

     Total force =     0.015696     Total SCF correction =     0.000087
 
     init_run     :     23.61s CPU     32.02s WALL (       1 calls)
     electrons    :   1005.01s CPU   1350.28s WALL (       1 calls)
     forces       :     19.82s CPU     32.14s WALL (       1 calls)

     Called by init_run:
     wfcinit      :     23.19s CPU     31.52s WALL (       1 calls)
     potinit      :      0.09s CPU      0.11s WALL (       1 calls)
     hinit0       :      0.14s CPU      0.20s WALL (       1 calls)

     Called by electrons:
     c_bands      :    961.39s CPU   1300.93s WALL (      14 calls)
     sum_band     :     43.06s CPU     48.25s WALL (      14 calls)
     v_of_rho     :      0.43s CPU      0.79s WALL (      15 calls)
     mix_rho      :      0.13s CPU      0.31s WALL (      14 calls)

     Called by c_bands:
     init_us_2    :      8.18s CPU      8.30s WALL (     240 calls)
     cegterg      :    932.50s CPU   1271.13s WALL (     112 calls)

     Called by *egterg:
     cdiaghg      :     65.41s CPU    121.47s WALL (     520 calls)
     h_psi        :    477.61s CPU    526.83s WALL (     528 calls)
     g_psi        :      1.70s CPU      1.73s WALL (     408 calls)

     Called by h_psi:
     h_psi:calbec :    150.07s CPU    165.24s WALL (     528 calls)
     vloc_psi     :    201.80s CPU    232.93s WALL (     528 calls)
     add_vuspsi   :    122.16s CPU    124.64s WALL (     528 calls)

     General routines
     calbec       :    165.75s CPU    193.03s WALL (     560 calls)
     fft          :      0.31s CPU      0.66s WALL (     160 calls)
     ffts         :      0.01s CPU      0.01s WALL (      14 calls)
     fftw         :    223.18s CPU    257.29s WALL (  532340 calls)
 
     Parallel routines
 
     PWSCF        :  17m28.50s CPU  23m34.66s WALL

 
   This run was terminated on:  17:59:52  19May2025            

=------------------------------------------------------------------------------=
   JOB DONE.
=------------------------------------------------------------------------------=
