
     Program PWSCF v.6.8 starts on 19May2025 at 17:36:17 

     This program is part of the open-source Quantum ESPRESSO suite
     for quantum simulation of materials; please cite
         "P. Giannozzi et al., J. Phys.:Condens. Matter 21 395502 (2009);
         "P. Giannozzi et al., J. Phys.:Condens. Matter 29 465901 (2017);
         "P. Giannozzi et al., J. Chem. Phys. 152 154105 (2020);
          URL http://www.quantum-espresso.org", 
     in publications or presentations arising from this work. More details at
     http://www.quantum-espresso.org/quote

     Parallel version (MPI & OpenMP), running on      56 processor cores
     Number of MPI processes:                56
     Threads/MPI process:                     1

     MPI processes distributed on     1 nodes
     R & G space division:  proc/nbgrp/npool/nimage =      56
     186810 MiB available memory on the printing compute node when the environment starts
 
     Reading input from supercell-017.in

     Current dimensions of program PWSCF are:
     Max number of different atomic species (ntypx) = 10
     Max number of k-points (npk) =  40000
     Max angular momentum in pseudopotentials (lmaxx) =  4

     Subspace diagonalization in iterative solution of the eigenvalue problem:
     one sub-group per band group will be used
     scalapack distributed-memory algorithm (size of sub-group:  7*  7 procs)

 
     Parallelization info
     --------------------
     sticks:   dense  smooth     PW     G-vecs:    dense   smooth      PW
     Min         142     142     37                11872    11872    1609
     Max         143     143     38                11879    11879    1614
     Sum        7985    7985   2105               665041   665041   90217
 
     Using Slab Decomposition
 


     bravais-lattice index     =            0
     lattice parameter (alat)  =      16.4683  a.u.
     unit-cell volume          =   10586.5407 (a.u.)^3
     number of atoms/cell      =          162
     number of atomic types    =            2
     number of electrons       =      1404.00
     number of Kohn-Sham states=          702
     kinetic-energy cutoff     =      60.0000  Ry
     charge density cutoff     =     240.0000  Ry
     scf convergence threshold =      1.0E-08
     mixing beta               =       0.7000
     number of iterations used =            8  plain     mixing
     Exchange-correlation= PBE
                           (   1   4   3   4   0   0   0)

     celldm(1)=  16.468320  celldm(2)=   0.000000  celldm(3)=   0.000000
     celldm(4)=   0.000000  celldm(5)=   0.000000  celldm(6)=   0.000000

     crystal axes: (cart. coord. in units of alat)
               a(1) = (   1.000000   0.000000   0.000000 )  
               a(2) = (   0.000000   1.539583   0.000000 )  
               a(3) = (   0.000000   0.000000   1.539583 )  

     reciprocal axes: (cart. coord. in units 2 pi/alat)
               b(1) = (  1.000000  0.000000  0.000000 )  
               b(2) = (  0.000000  0.649527  0.000000 )  
               b(3) = (  0.000000  0.000000  0.649527 )  


     PseudoPot. # 1 for Ge read from file:
     ./Ge.upf
     MD5 check sum: 087fa14d6c89b52166990835c3b338da
     Pseudo is Norm-conserving + core correction, Zval = 14.0
     Generated using ONCVPSP code by D. R. Hamann
     Using radial grid of 1560 points,  6 beta functions with: 
                l(1) =   0
                l(2) =   0
                l(3) =   1
                l(4) =   1
                l(5) =   2
                l(6) =   2

     PseudoPot. # 2 for O  read from file:
     ./O.upf
     MD5 check sum: 9db02a5ece9d56b81b65a73f8163743d
     Pseudo is Norm-conserving + core correction, Zval =  6.0
     Generated using ONCVPSP code by D. R. Hamann
     Using radial grid of  936 points,  5 beta functions with: 
                l(1) =   0
                l(2) =   0
                l(3) =   1
                l(4) =   1
                l(5) =   2

     atomic species   valence    mass     pseudopotential
        Ge            14.00    72.64000     Ge( 1.00)
        O              6.00    15.99940     O ( 1.00)

     No symmetry found



   Cartesian axes

     site n.     atom                  positions (alat units)
         1           Ge  tau(   1) = (   0.1668459   0.2567076   0.2567076  )
         2           Ge  tau(   2) = (   0.5001793   0.2567076   0.2567076  )
         3           Ge  tau(   3) = (   0.8335126   0.2567076   0.2567076  )
         4           Ge  tau(   4) = (   0.1668459   0.7699019   0.2567076  )
         5           Ge  tau(   5) = (   0.5001793   0.7699019   0.2567076  )
         6           Ge  tau(   6) = (   0.8335126   0.7699019   0.2567076  )
         7           Ge  tau(   7) = (   0.1668459   1.2830962   0.2567076  )
         8           Ge  tau(   8) = (   0.5001793   1.2830962   0.2567076  )
         9           Ge  tau(   9) = (   0.8335126   1.2830962   0.2567076  )
        10           Ge  tau(  10) = (   0.1668459   0.2567076   0.7699019  )
        11           Ge  tau(  11) = (   0.5001793   0.2567076   0.7699019  )
        12           Ge  tau(  12) = (   0.8335126   0.2567076   0.7699019  )
        13           Ge  tau(  13) = (   0.1668459   0.7699019   0.7699019  )
        14           Ge  tau(  14) = (   0.5001793   0.7699019   0.7699019  )
        15           Ge  tau(  15) = (   0.8335126   0.7699019   0.7699019  )
        16           Ge  tau(  16) = (   0.1668459   1.2830962   0.7699019  )
        17           Ge  tau(  17) = (   0.5001793   1.2830962   0.7699019  )
        18           Ge  tau(  18) = (   0.8335126   1.2830962   0.7699019  )
        19           Ge  tau(  19) = (   0.1668459   0.2567076   1.2830962  )
        20           Ge  tau(  20) = (   0.5001793   0.2567076   1.2830962  )
        21           Ge  tau(  21) = (   0.8335126   0.2567076   1.2830962  )
        22           Ge  tau(  22) = (   0.1668459   0.7699019   1.2830962  )
        23           Ge  tau(  23) = (   0.5001793   0.7699019   1.2830962  )
        24           Ge  tau(  24) = (   0.8335126   0.7699019   1.2830962  )
        25           Ge  tau(  25) = (   0.1668459   1.2830962   1.2830962  )
        26           Ge  tau(  26) = (   0.5001793   1.2830962   1.2830962  )
        27           Ge  tau(  27) = (   0.8335126   1.2830962   1.2830962  )
        28           Ge  tau(  28) = (   0.0002011   0.0001111   0.0001111  )
        29           Ge  tau(  29) = (   0.3335344   0.0001111   0.0001111  )
        30           Ge  tau(  30) = (   0.6668677   0.0001111   0.0001111  )
        31           Ge  tau(  31) = (   0.0002011   0.5133054   0.0001111  )
        32           Ge  tau(  32) = (   0.3335344   0.5133054   0.0001111  )
        33           Ge  tau(  33) = (   0.6668677   0.5133054   0.0001111  )
        34           Ge  tau(  34) = (   0.0002011   1.0264997   0.0001111  )
        35           Ge  tau(  35) = (   0.3335344   1.0264997   0.0001111  )
        36           Ge  tau(  36) = (   0.6668677   1.0264997   0.0001111  )
        37           Ge  tau(  37) = (   0.0002011   0.0001111   0.5133054  )
        38           Ge  tau(  38) = (   0.3335344   0.0001111   0.5133054  )
        39           Ge  tau(  39) = (   0.6668677   0.0001111   0.5133054  )
        40           Ge  tau(  40) = (   0.0002011   0.5133054   0.5133054  )
        41           Ge  tau(  41) = (   0.3335344   0.5133054   0.5133054  )
        42           Ge  tau(  42) = (   0.6668677   0.5133054   0.5133054  )
        43           Ge  tau(  43) = (   0.0002011   1.0264997   0.5133054  )
        44           Ge  tau(  44) = (   0.3335344   1.0264997   0.5133054  )
        45           Ge  tau(  45) = (   0.6668677   1.0264997   0.5133054  )
        46           Ge  tau(  46) = (   0.0002011   0.0001111   1.0264997  )
        47           Ge  tau(  47) = (   0.3335344   0.0001111   1.0264997  )
        48           Ge  tau(  48) = (   0.6668677   0.0001111   1.0264997  )
        49           Ge  tau(  49) = (   0.0002011   0.5133054   1.0264997  )
        50           Ge  tau(  50) = (   0.3335344   0.5133054   1.0264997  )
        51           Ge  tau(  51) = (   0.6668677   0.5133054   1.0264997  )
        52           Ge  tau(  52) = (   0.0002011   1.0264997   1.0264997  )
        53           Ge  tau(  53) = (   0.3335344   1.0264997   1.0264997  )
        54           Ge  tau(  54) = (   0.6668677   1.0264997   1.0264997  )
        55           O   tau(  55) = (   0.0001875   0.3558055   0.3558055  )
        56           O   tau(  56) = (   0.3335209   0.3558055   0.3558055  )
        57           O   tau(  57) = (   0.6668542   0.3558055   0.3558055  )
        58           O   tau(  58) = (   0.0001875   0.8689998   0.3558055  )
        59           O   tau(  59) = (   0.3335209   0.8689998   0.3558055  )
        60           O   tau(  60) = (   0.6668542   0.8689998   0.3558055  )
        61           O   tau(  61) = (   0.0001875   1.3821941   0.3558055  )
        62           O   tau(  62) = (   0.3335209   1.3821941   0.3558055  )
        63           O   tau(  63) = (   0.6668542   1.3821941   0.3558055  )
        64           O   tau(  64) = (   0.0001875   0.3558055   0.8689998  )
        65           O   tau(  65) = (   0.3335209   0.3558055   0.8689998  )
        66           O   tau(  66) = (   0.6668542   0.3558055   0.8689998  )
        67           O   tau(  67) = (   0.0001875   0.8689998   0.8689998  )
        68           O   tau(  68) = (   0.3335209   0.8689998   0.8689998  )
        69           O   tau(  69) = (   0.6668542   0.8689998   0.8689998  )
        70           O   tau(  70) = (   0.0001875   1.3821941   0.8689998  )
        71           O   tau(  71) = (   0.3335209   1.3821941   0.8689998  )
        72           O   tau(  72) = (   0.6668542   1.3821941   0.8689998  )
        73           O   tau(  73) = (   0.0001875   0.3558055   1.3821941  )
        74           O   tau(  74) = (   0.3335209   0.3558055   1.3821941  )
        75           O   tau(  75) = (   0.6668542   0.3558055   1.3821941  )
        76           O   tau(  76) = (   0.0001875   0.8689998   1.3821941  )
        77           O   tau(  77) = (   0.3335209   0.8689998   1.3821941  )
        78           O   tau(  78) = (   0.6668542   0.8689998   1.3821941  )
        79           O   tau(  79) = (   0.0001875   1.3821941   1.3821941  )
        80           O   tau(  80) = (   0.3335209   1.3821941   1.3821941  )
        81           O   tau(  81) = (   0.6668542   1.3821941   1.3821941  )
        82           O   tau(  82) = (   0.1668565   0.4142272   0.1004366  )
        83           O   tau(  83) = (   0.5001898   0.4142272   0.0992221  )
        84           O   tau(  84) = (   0.8335231   0.4142272   0.0992221  )
        85           O   tau(  85) = (   0.1668565   0.9274215   0.0992221  )
        86           O   tau(  86) = (   0.5001898   0.9274215   0.0992221  )
        87           O   tau(  87) = (   0.8335231   0.9274215   0.0992221  )
        88           O   tau(  88) = (   0.1668565   1.4406159   0.0992221  )
        89           O   tau(  89) = (   0.5001898   1.4406159   0.0992221  )
        90           O   tau(  90) = (   0.8335231   1.4406159   0.0992221  )
        91           O   tau(  91) = (   0.1668565   0.4142272   0.6124165  )
        92           O   tau(  92) = (   0.5001898   0.4142272   0.6124165  )
        93           O   tau(  93) = (   0.8335231   0.4142272   0.6124165  )
        94           O   tau(  94) = (   0.1668565   0.9274215   0.6124165  )
        95           O   tau(  95) = (   0.5001898   0.9274215   0.6124165  )
        96           O   tau(  96) = (   0.8335231   0.9274215   0.6124165  )
        97           O   tau(  97) = (   0.1668565   1.4406159   0.6124165  )
        98           O   tau(  98) = (   0.5001898   1.4406159   0.6124165  )
        99           O   tau(  99) = (   0.8335231   1.4406159   0.6124165  )
       100           O   tau( 100) = (   0.1668565   0.4142272   1.1256108  )
       101           O   tau( 101) = (   0.5001898   0.4142272   1.1256108  )
       102           O   tau( 102) = (   0.8335231   0.4142272   1.1256108  )
       103           O   tau( 103) = (   0.1668565   0.9274215   1.1256108  )
       104           O   tau( 104) = (   0.5001898   0.9274215   1.1256108  )
       105           O   tau( 105) = (   0.8335231   0.9274215   1.1256108  )
       106           O   tau( 106) = (   0.1668565   1.4406159   1.1256108  )
       107           O   tau( 107) = (   0.5001898   1.4406159   1.1256108  )
       108           O   tau( 108) = (   0.8335231   1.4406159   1.1256108  )
       109           O   tau( 109) = (   0.0001875   0.1576176   0.1576176  )
       110           O   tau( 110) = (   0.3335209   0.1576176   0.1576176  )
       111           O   tau( 111) = (   0.6668542   0.1576176   0.1576176  )
       112           O   tau( 112) = (   0.0001875   0.6708120   0.1576176  )
       113           O   tau( 113) = (   0.3335209   0.6708120   0.1576176  )
       114           O   tau( 114) = (   0.6668542   0.6708120   0.1576176  )
       115           O   tau( 115) = (   0.0001875   1.1840063   0.1576176  )
       116           O   tau( 116) = (   0.3335209   1.1840063   0.1576176  )
       117           O   tau( 117) = (   0.6668542   1.1840063   0.1576176  )
       118           O   tau( 118) = (   0.0001875   0.1576176   0.6708120  )
       119           O   tau( 119) = (   0.3335209   0.1576176   0.6708120  )
       120           O   tau( 120) = (   0.6668542   0.1576176   0.6708120  )
       121           O   tau( 121) = (   0.0001875   0.6708120   0.6708120  )
       122           O   tau( 122) = (   0.3335209   0.6708120   0.6708120  )
       123           O   tau( 123) = (   0.6668542   0.6708120   0.6708120  )
       124           O   tau( 124) = (   0.0001875   1.1840063   0.6708120  )
       125           O   tau( 125) = (   0.3335209   1.1840063   0.6708120  )
       126           O   tau( 126) = (   0.6668542   1.1840063   0.6708120  )
       127           O   tau( 127) = (   0.0001875   0.1576176   1.1840063  )
       128           O   tau( 128) = (   0.3335209   0.1576176   1.1840063  )
       129           O   tau( 129) = (   0.6668542   0.1576176   1.1840063  )
       130           O   tau( 130) = (   0.0001875   0.6708120   1.1840063  )
       131           O   tau( 131) = (   0.3335209   0.6708120   1.1840063  )
       132           O   tau( 132) = (   0.6668542   0.6708120   1.1840063  )
       133           O   tau( 133) = (   0.0001875   1.1840063   1.1840063  )
       134           O   tau( 134) = (   0.3335209   1.1840063   1.1840063  )
       135           O   tau( 135) = (   0.6668542   1.1840063   1.1840063  )
       136           O   tau( 136) = (   0.1668565   0.0992221   0.4142272  )
       137           O   tau( 137) = (   0.5001898   0.0992221   0.4142272  )
       138           O   tau( 138) = (   0.8335231   0.0992221   0.4142272  )
       139           O   tau( 139) = (   0.1668565   0.6124165   0.4142272  )
       140           O   tau( 140) = (   0.5001898   0.6124165   0.4142272  )
       141           O   tau( 141) = (   0.8335231   0.6124165   0.4142272  )
       142           O   tau( 142) = (   0.1668565   1.1256108   0.4142272  )
       143           O   tau( 143) = (   0.5001898   1.1256108   0.4142272  )
       144           O   tau( 144) = (   0.8335231   1.1256108   0.4142272  )
       145           O   tau( 145) = (   0.1668565   0.0992221   0.9274215  )
       146           O   tau( 146) = (   0.5001898   0.0992221   0.9274215  )
       147           O   tau( 147) = (   0.8335231   0.0992221   0.9274215  )
       148           O   tau( 148) = (   0.1668565   0.6124165   0.9274215  )
       149           O   tau( 149) = (   0.5001898   0.6124165   0.9274215  )
       150           O   tau( 150) = (   0.8335231   0.6124165   0.9274215  )
       151           O   tau( 151) = (   0.1668565   1.1256108   0.9274215  )
       152           O   tau( 152) = (   0.5001898   1.1256108   0.9274215  )
       153           O   tau( 153) = (   0.8335231   1.1256108   0.9274215  )
       154           O   tau( 154) = (   0.1668565   0.0992221   1.4406159  )
       155           O   tau( 155) = (   0.5001898   0.0992221   1.4406159  )
       156           O   tau( 156) = (   0.8335231   0.0992221   1.4406159  )
       157           O   tau( 157) = (   0.1668565   0.6124165   1.4406159  )
       158           O   tau( 158) = (   0.5001898   0.6124165   1.4406159  )
       159           O   tau( 159) = (   0.8335231   0.6124165   1.4406159  )
       160           O   tau( 160) = (   0.1668565   1.1256108   1.4406159  )
       161           O   tau( 161) = (   0.5001898   1.1256108   1.4406159  )
       162           O   tau( 162) = (   0.8335231   1.1256108   1.4406159  )

     number of k points=     8
                       cart. coord. in units 2pi/alat
        k(    1) = (   0.0000000   0.0000000   0.0000000), wk =   0.1666667
        k(    2) = (   0.0000000   0.0000000  -0.3247633), wk =   0.1666667
        k(    3) = (   0.0000000  -0.3247633  -0.3247633), wk =   0.1666667
        k(    4) = (   0.3333333   0.0000000   0.0000000), wk =   0.3333333
        k(    5) = (   0.3333333   0.0000000  -0.3247633), wk =   0.3333333
        k(    6) = (   0.3333333  -0.3247633  -0.3247633), wk =   0.3333333
        k(    7) = (   0.0000000  -0.3247633   0.0000000), wk =   0.1666667
        k(    8) = (  -0.3333333  -0.3247633   0.0000000), wk =   0.3333333

     Dense  grid:   665041 G-vectors     FFT dimensions: (  81, 125, 125)

     Estimated max dynamical RAM per process >     297.43 MB

     Estimated total dynamical RAM >      16.27 GB

     Check: negative core charge=   -0.000052

     Initial potential from superposition of free atoms

     starting charge 1403.95515, renormalised to 1404.00000
     Starting wfcs are  918 randomized atomic wfcs

     total cpu time spent up to now is       32.1 secs

     Self-consistent Calculation

     iteration #  1     ecut=    60.00 Ry     beta= 0.70
     Davidson diagonalization with overlap
     ethr =  1.00E-02,  avg # of iterations =  2.0

     total cpu time spent up to now is      122.7 secs

     total energy              =  -13210.92951364 Ry
     estimated scf accuracy    <      34.04521466 Ry

     iteration #  2     ecut=    60.00 Ry     beta= 0.70
     Davidson diagonalization with overlap
     ethr =  2.42E-03,  avg # of iterations =  3.9

     total cpu time spent up to now is      219.7 secs

     total energy              =  -13222.25295853 Ry
     estimated scf accuracy    <      22.01622463 Ry

     iteration #  3     ecut=    60.00 Ry     beta= 0.70
     Davidson diagonalization with overlap
     ethr =  1.57E-03,  avg # of iterations =  2.0

     total cpu time spent up to now is      305.8 secs

     total energy              =  -13225.45840876 Ry
     estimated scf accuracy    <       0.43804109 Ry

     iteration #  4     ecut=    60.00 Ry     beta= 0.70
     Davidson diagonalization with overlap
     ethr =  3.12E-05,  avg # of iterations =  6.0

     total cpu time spent up to now is      433.4 secs

     total energy              =  -13225.87533135 Ry
     estimated scf accuracy    <       0.56172295 Ry

     iteration #  5     ecut=    60.00 Ry     beta= 0.70
     Davidson diagonalization with overlap
     ethr =  3.12E-05,  avg # of iterations =  2.0

     total cpu time spent up to now is      514.0 secs

     total energy              =  -13225.87780138 Ry
     estimated scf accuracy    <       0.09220888 Ry

     iteration #  6     ecut=    60.00 Ry     beta= 0.70
     Davidson diagonalization with overlap
     ethr =  6.57E-06,  avg # of iterations =  4.5

     total cpu time spent up to now is      613.8 secs

     total energy              =  -13225.90768791 Ry
     estimated scf accuracy    <       0.00066075 Ry

     iteration #  7     ecut=    60.00 Ry     beta= 0.70
     Davidson diagonalization with overlap
     ethr =  4.71E-08,  avg # of iterations =  6.0

     total cpu time spent up to now is      740.3 secs

     total energy              =  -13225.90718745 Ry
     estimated scf accuracy    <       0.00380982 Ry

     iteration #  8     ecut=    60.00 Ry     beta= 0.70
     Davidson diagonalization with overlap
     ethr =  4.71E-08,  avg # of iterations =  4.4

     total cpu time spent up to now is      837.9 secs

     total energy              =  -13225.90707613 Ry
     estimated scf accuracy    <       0.00084701 Ry

     iteration #  9     ecut=    60.00 Ry     beta= 0.70
     Davidson diagonalization with overlap
     ethr =  4.71E-08,  avg # of iterations =  2.4

     total cpu time spent up to now is      924.9 secs

     total energy              =  -13225.90716425 Ry
     estimated scf accuracy    <       0.00007963 Ry

     iteration # 10     ecut=    60.00 Ry     beta= 0.70
     Davidson diagonalization with overlap
     ethr =  5.67E-09,  avg # of iterations =  4.5

     total cpu time spent up to now is     1017.2 secs

     total energy              =  -13225.90717783 Ry
     estimated scf accuracy    <       0.00000740 Ry

     iteration # 11     ecut=    60.00 Ry     beta= 0.70
     Davidson diagonalization with overlap
     ethr =  5.27E-10,  avg # of iterations =  2.4

     total cpu time spent up to now is     1104.3 secs

     total energy              =  -13225.90717924 Ry
     estimated scf accuracy    <       0.00000036 Ry

     iteration # 12     ecut=    60.00 Ry     beta= 0.70
     Davidson diagonalization with overlap
     ethr =  2.59E-11,  avg # of iterations =  5.4

     total cpu time spent up to now is     1211.4 secs

     total energy              =  -13225.90717939 Ry
     estimated scf accuracy    <       0.00000002 Ry

     iteration # 13     ecut=    60.00 Ry     beta= 0.70
     Davidson diagonalization with overlap
     ethr =  1.69E-12,  avg # of iterations =  3.4

     total cpu time spent up to now is     1301.2 secs

     total energy              =  -13225.90717939 Ry
     estimated scf accuracy    <       0.00000003 Ry

     iteration # 14     ecut=    60.00 Ry     beta= 0.70
     Davidson diagonalization with overlap
     ethr =  1.69E-12,  avg # of iterations =  3.0

     total cpu time spent up to now is     1384.6 secs

     End of self-consistent calculation

          k = 0.0000 0.0000 0.0000 ( 83133 PWs)   bands (ev):

   -14.2938 -14.2532 -14.2525 -14.2518 -14.2513 -14.2356 -14.2352 -14.2347
   -14.2339 -14.2204 -14.2203 -14.2200 -14.2195 -14.2194 -14.2193 -14.2192
   -14.2191 -14.2176 -14.2176 -14.2171 -14.2171 -14.2167 -14.2166 -14.2166
   -14.2161 -14.2120 -14.2119 -14.2118 -14.2117 -14.2117 -14.2114 -14.2110
   -14.2095 -14.1893 -14.1889 -14.1885 -14.1876 -14.1841 -14.1840 -14.1838
   -14.1836 -14.1832 -14.1832 -14.1831 -14.1830 -14.1818 -14.1817 -14.1812
   -14.1796 -14.1635 -14.1628 -14.1621 -14.1614 -14.1206 -14.1196 -14.1194
   -14.0667 -14.0660 -14.0657 -14.0656 -14.0653 -14.0651 -14.0648 -14.0646
   -14.0419 -14.0416 -14.0413 -14.0410 -14.0406 -14.0404 -14.0401 -14.0400
   -14.0154 -14.0152 -14.0148 -14.0148 -14.0144 -14.0142 -14.0141 -14.0136
   -13.9933 -13.9933 -13.9921 -13.9918 -13.9916 -13.9916 -13.9915 -13.9914
   -13.9911 -13.9911 -13.9909 -13.9905 -13.9900 -13.9893 -13.9882 -13.9880
   -13.9876 -13.9867 -13.9866 -13.9865 -13.9862 -13.9860 -13.9856 -13.9850
   -13.9846 -13.9838 -13.9836 -13.9827 -13.9826 -13.9825 -13.9816 -13.9810
   -13.9808 -13.9802 -13.9798 -13.9796 -13.9783 -13.9639 -13.9632 -13.9630
   -13.9621 -13.9583 -13.9577 -13.9570 -13.9558 -13.9411 -13.9396 -13.9383
   -13.9380 -13.9379 -13.9373 -13.9373 -13.9369 -13.9364 -13.9362 -13.9362
   -13.9361 -13.9361 -13.9360 -13.9360 -13.9359 -13.9355 -13.9355 -13.9352
   -13.9351 -13.9350 -13.9350 -13.9350 -13.9348 -13.9346 -13.9346 -13.9346
   -13.9342 -13.9341 -13.9341 -13.9338 -13.9336 -13.9331 -13.9322 -13.9322
   -13.9302 -13.9286 -13.9284 -13.9273 -13.9209 -13.9208 -13.9202 -13.9199
   -13.9195 -13.9195 -13.9191 -13.9190 -13.9169 -13.9168 -13.9156 -13.9155
   -13.9152 -13.9150 -13.9150 -13.9147 -13.9146 -13.9146 -13.9144 -13.9144
   -13.9140 -13.9140 -13.9137 -13.9136 -13.9134 -13.9133 -13.9133 -13.9130
   -13.9130 -13.9125 -13.9123 -13.9122 -13.9118 -13.9108 -13.9070 -13.9061
   -13.9061 -13.9047 -13.9040 -13.9034 -13.9033 -13.9028 -13.9027 -13.9024
   -13.9019 -13.8975 -13.8972 -13.8970 -13.8969 -13.8965 -13.8964 -13.8960
   -13.8960 -13.8955 -13.8953 -13.8952 -13.8951 -13.8951 -13.8949 -13.8949
   -13.8947 -13.8944 -13.8943 -13.8940 -13.8938 -13.8929 -13.8925 -13.8925
   -13.8924 -13.8922 -13.8920 -13.8916 -13.8915 -13.8914 -13.8913 -13.8911
   -13.8910 -13.8908 -13.8905 -13.8902 -13.8901 -13.8896 -13.8895 -13.8888
   -13.8880 -13.8877 -13.8875 -13.8871 -13.8869 -13.8864 -13.8861 -13.8859
   -13.8859 -13.8857 -13.8856 -13.8854 -13.8851 -13.8851 -13.8848 -13.8846
   -13.8844 -13.8843 -13.8840 -13.8833 -13.8827 -13.8781 -10.2580  -9.7881
    -9.7877  -9.7872  -9.7866  -9.3402  -9.3398  -9.3394  -9.3393  -9.1866
    -9.1864  -8.8136  -8.8130  -8.8128  -8.8125  -8.8123  -8.8122  -8.8116
    -8.8112  -8.5482  -8.5479  -8.5473  -8.5468  -8.4898  -8.4894  -8.4892
    -8.4891  -8.4891  -8.4889  -8.4879  -8.4878  -8.4730  -8.4724  -8.4720
    -8.4709  -7.9427  -7.9426  -7.9422  -7.9420  -7.9418  -7.9417  -7.9409
    -7.9399  -7.8861  -7.8859  -7.8856  -7.8856  -7.8851  -7.8851  -7.8843
    -7.8835  -7.5845  -7.5839  -7.5835  -7.5826  -7.4330  -7.4326  -7.1656
    -7.1650  -7.1056  -7.1052  -7.1050  -7.1044  -6.9710  -6.9707  -6.9701
    -6.9694  -6.7970  -6.7960  -6.7955  -6.7952  -6.7950  -6.7949  -6.7943
    -6.7939  -6.7329  -6.6779  -6.6770  -6.6770  -6.6769  -6.5965  -6.5956
    -6.5954  -6.5950  -6.5949  -6.5948  -6.5945  -6.5943  -6.5867  -6.5860
    -6.5853  -6.5842  -6.5755  -6.5748  -6.5744  -6.5744  -6.5743  -6.5742
    -6.5738  -6.5731  -6.5019  -6.5014  -6.5010  -6.5008  -6.5007  -6.5005
    -6.5001  -6.4996   0.4399   0.4859   0.4867   1.2360   1.2372   1.2374
     1.2376   1.2378   1.2381   1.2385   1.2387   1.2929   1.2948   1.2955
     1.2960   1.3114   1.3127   1.3129   1.3134   1.3135   1.3137   1.3140
     1.3148   1.8132   1.8144   1.8146   1.8148   1.8149   1.8153   1.8157
     1.8163   2.2351   2.2365   2.2368   2.2376   2.8203   2.8208   2.8209
     2.8215   2.8215   2.8219   2.8224   2.8233   3.3708   3.3714   3.4054
     3.4061   3.4065   3.4068   3.6823   3.6827   3.6833   3.6839   3.8359
     3.8362   3.8367   3.8368   3.8371   3.8372   3.8377   3.8381   4.1546
     4.1550   4.1554   4.1554   4.1559   4.1560   4.1560   4.1564   4.6113
     4.6117   4.6119   4.6120   4.6121   4.6121   4.6125   4.6132   4.9211
     4.9214   4.9216   4.9218   4.9220   4.9222   4.9225   4.9227   4.9274
     4.9274   5.0084   5.0088   5.0089   5.0091   5.0092   5.0095   5.0098
     5.0099   5.2203   5.2212   5.4182   5.4189   5.4193   5.4201   5.5937
     5.5938   5.5940   5.5943   5.5944   5.5944   5.5948   5.5951   5.5982
     5.5985   5.5989   5.5993   5.6675   5.6677   5.6678   5.6681   5.6681
     5.6685   5.6689   5.6696   5.7513   5.8844   5.8850   5.8853   5.8858
     6.1699   6.1705   6.1708   6.1719   6.1902   6.3684   6.3698   6.3700
     6.3704   6.4039   6.4042   6.4806   6.4815   6.4820   6.4822   6.4826
     6.4831   6.4833   6.4835   6.4836   6.4843   6.4844   6.4847   6.6770
     6.6772   6.6775   6.6775   6.6780   6.6781   6.6794   6.6799   6.7643
     6.7648   6.7654   6.7661   7.0548   7.0554   7.0560   7.0571   7.0648
     7.0654   7.0658   7.0664   7.1749   7.2109   7.2117   7.2119   7.2130
     7.2481   7.2484   7.5774   7.5777   7.5779   7.5784   7.6372   7.6377
     7.6380   7.6389   7.8604   7.8607   7.8611   7.8614   7.8614   7.8617
     7.8619   7.8621   7.9046   7.9052   7.9054   7.9056   7.9058   7.9058
     7.9061   7.9067   8.0727   8.0933   8.0942   8.0945   8.0946   8.0946
     8.0948   8.0951   8.0952   8.1637   8.1642   8.1644   8.1648   8.3027
     8.3031   8.3039   8.3042   8.4450   8.4456   8.4459   8.4468   8.4862
     8.4875   8.4876   8.4878   8.4880   8.4881   8.4884   8.4885   8.5172
     8.5173   8.6109   8.6111   8.6116   8.6119   8.6257   8.6263   8.6265
     8.6273   8.6503   8.6506   8.6507   8.6509   8.6511   8.6514   8.6515
     8.6518   8.7157   8.7163   8.7171   8.7177   8.9313   8.9316   8.9323
     8.9323   8.9326   8.9328   8.9332   8.9340   9.0444   9.0445   9.0449
     9.0450   9.0452   9.0454   9.0457   9.0463   9.1440   9.1442   9.1443
     9.1444   9.1533   9.1537   9.1539   9.1541   9.1542   9.1545   9.1547
     9.1548   9.2553   9.2559   9.2560   9.2562   9.2564   9.2565   9.2569
     9.2572   9.2852   9.2856   9.2861   9.2865   9.4636   9.4637   9.5294
     9.5299   9.5304   9.5313   9.5394   9.5394   9.5401   9.5402   9.5406
     9.5407   9.5416   9.5417   9.5838   9.5841   9.5843   9.5843   9.5847
     9.5849   9.5854   9.5854   9.6806   9.6810   9.6814   9.6818   9.7106
     9.7108   9.9185   9.9197   9.9202   9.9214  10.4933

          k = 0.0000 0.0000-0.3248 ( 83134 PWs)   bands (ev):

   -14.2833 -14.2812 -14.2490 -14.2489 -14.2472 -14.2465 -14.2267 -14.2266
   -14.2261 -14.2260 -14.2259 -14.2257 -14.2256 -14.2255 -14.2246 -14.2246
   -14.2241 -14.2232 -14.2128 -14.2127 -14.2120 -14.2115 -14.2037 -14.2033
   -14.2015 -14.2014 -14.2003 -14.2000 -14.1983 -14.1980 -14.1977 -14.1976
   -14.1972 -14.1972 -14.1970 -14.1970 -14.1959 -14.1956 -14.1952 -14.1952
   -14.1946 -14.1944 -14.1942 -14.1931 -14.1909 -14.1907 -14.1891 -14.1880
   -14.1711 -14.1710 -14.1692 -14.1685 -14.1322 -14.1300 -14.0855 -14.0855
   -14.0842 -14.0840 -14.0573 -14.0572 -14.0566 -14.0566 -14.0556 -14.0555
   -14.0550 -14.0547 -14.0475 -14.0474 -14.0472 -14.0471 -14.0467 -14.0467
   -14.0465 -14.0459 -14.0111 -14.0109 -14.0108 -14.0107 -13.9971 -13.9968
   -13.9963 -13.9962 -13.9949 -13.9949 -13.9947 -13.9944 -13.9912 -13.9907
   -13.9892 -13.9892 -13.9892 -13.9888 -13.9885 -13.9878 -13.9875 -13.9874
   -13.9871 -13.9870 -13.9865 -13.9861 -13.9855 -13.9852 -13.9851 -13.9843
   -13.9840 -13.9838 -13.9836 -13.9833 -13.9832 -13.9818 -13.9816 -13.9810
   -13.9798 -13.9771 -13.9715 -13.9713 -13.9707 -13.9701 -13.9686 -13.9681
   -13.9580 -13.9577 -13.9561 -13.9552 -13.9417 -13.9402 -13.9391 -13.9387
   -13.9387 -13.9383 -13.9381 -13.9379 -13.9373 -13.9373 -13.9370 -13.9370
   -13.9367 -13.9363 -13.9362 -13.9361 -13.9358 -13.9358 -13.9357 -13.9357
   -13.9352 -13.9352 -13.9349 -13.9347 -13.9346 -13.9346 -13.9345 -13.9345
   -13.9345 -13.9336 -13.9335 -13.9333 -13.9332 -13.9326 -13.9324 -13.9322
   -13.9311 -13.9297 -13.9223 -13.9223 -13.9216 -13.9215 -13.9209 -13.9207
   -13.9202 -13.9202 -13.9198 -13.9197 -13.9195 -13.9195 -13.9192 -13.9192
   -13.9189 -13.9189 -13.9187 -13.9186 -13.9178 -13.9172 -13.9162 -13.9159
   -13.9158 -13.9153 -13.9153 -13.9140 -13.9137 -13.9137 -13.9132 -13.9130
   -13.9130 -13.9130 -13.9126 -13.9125 -13.9121 -13.9118 -13.9107 -13.9076
   -13.9075 -13.9074 -13.9056 -13.9049 -13.9025 -13.9016 -13.9013 -13.9011
   -13.9007 -13.9005 -13.8994 -13.8990 -13.8988 -13.8985 -13.8967 -13.8956
   -13.8953 -13.8951 -13.8950 -13.8947 -13.8944 -13.8942 -13.8941 -13.8938
   -13.8935 -13.8933 -13.8929 -13.8926 -13.8923 -13.8922 -13.8922 -13.8921
   -13.8918 -13.8916 -13.8913 -13.8912 -13.8912 -13.8911 -13.8907 -13.8896
   -13.8891 -13.8890 -13.8887 -13.8886 -13.8884 -13.8882 -13.8881 -13.8880
   -13.8880 -13.8880 -13.8876 -13.8876 -13.8876 -13.8872 -13.8871 -13.8869
   -13.8866 -13.8861 -13.8861 -13.8857 -13.8850 -13.8849 -13.8848 -13.8847
   -13.8845 -13.8842 -13.8842 -13.8835 -13.8823 -13.8779 -10.1391 -10.1372
    -9.6720  -9.6717  -9.6701  -9.6698  -9.2366  -9.2358  -9.0915  -9.0910
    -9.0894  -9.0892  -8.8651  -8.8649  -8.8646  -8.8637  -8.7271  -8.7269
    -8.7268  -8.7262  -8.7251  -8.7250  -8.7245  -8.7242  -8.4844  -8.4835
    -8.4824  -8.4818  -8.3888  -8.3885  -8.3884  -8.3876  -8.1796  -8.1795
    -8.1793  -8.1793  -8.1790  -8.1788  -8.1785  -8.1772  -7.8806  -7.8804
    -7.8801  -7.8794  -7.8787  -7.8785  -7.8777  -7.8774  -7.8413  -7.8392
    -7.4112  -7.4109  -7.4100  -7.4096  -7.3728  -7.3725  -7.3720  -7.3720
    -7.3441  -7.3421  -7.3174  -7.3166  -7.3154  -7.3145  -6.8050  -6.8046
    -6.7409  -6.7396  -6.7394  -6.7393  -6.7391  -6.7389  -6.7388  -6.7386
    -6.6861  -6.6847  -6.6843  -6.6843  -6.6836  -6.6835  -6.6832  -6.6829
    -6.6733  -6.6727  -6.6713  -6.6703  -6.6474  -6.6472  -6.6454  -6.6449
    -6.5904  -6.5884  -6.5822  -6.5820  -6.5813  -6.5808  -6.5090  -6.5086
    -6.5086  -6.5085  -6.5018  -6.5015  -6.5011  -6.5008  -6.5002  -6.5001
    -6.4996  -6.4991   0.6587   0.6611   0.7078   0.7088   0.7102   0.7107
     1.2553   1.2562   1.2565   1.2571   1.2576   1.2581   1.2584   1.2587
     1.4055   1.4067   1.4068   1.4070   1.4072   1.4074   1.4078   1.4084
     1.5523   1.5538   1.5551   1.5560   2.1268   2.1274   2.1275   2.1282
     2.2551   2.2555   2.4270   2.4275   2.4278   2.4284   2.4284   2.4285
     2.4287   2.4297   3.0945   3.0955   3.0958   3.0960   3.2181   3.2189
     3.2202   3.2205   3.5670   3.5676   3.5692   3.5698   3.6746   3.6751
     3.6752   3.6754   3.9021   3.9021   3.9027   3.9029   3.9032   3.9035
     3.9036   3.9041   4.4041   4.4043   4.4056   4.4059   4.5696   4.5712
     4.8123   4.8123   4.8125   4.8125   4.8128   4.8132   4.8133   4.8138
     4.8617   4.8617   4.8620   4.8622   4.8625   4.8626   4.8628   4.8629
     5.2081   5.2089   5.2090   5.2091   5.2540   5.2543   5.2543   5.2546
     5.2550   5.2551   5.2553   5.2561   5.3810   5.3828   5.6206   5.6215
     5.6221   5.6221   5.6222   5.6224   5.6224   5.6224   5.6229   5.6230
     5.6234   5.6241   5.6404   5.6410   5.6417   5.6418   5.6421   5.6422
     5.6436   5.6438   5.6515   5.6521   5.6537   5.6544   5.7874   5.7875
     5.7876   5.7880   5.7884   5.7886   5.7888   5.7904   5.8571   5.8592
     5.9305   5.9313   5.9314   5.9320   6.2525   6.2531   6.2545   6.2553
     6.4390   6.4406   6.6489   6.6498   6.7091   6.7094   6.7868   6.7873
     6.7876   6.7887   6.9275   6.9275   6.9284   6.9291   7.1855   7.1865
     7.1877   7.1884   7.1911   7.1914   7.1931   7.1934   7.3346   7.3353
     7.3358   7.3359   7.3571   7.3583   7.3585   7.3585   7.3590   7.3592
     7.3592   7.3598   7.4242   7.4244   7.4260   7.4269   7.5541   7.5557
     7.5631   7.5634   7.5642   7.5650   7.6922   7.6937   7.6938   7.6939
     7.6941   7.6942   7.6949   7.6949   7.7606   7.7609   7.7612   7.7618
     8.0693   8.0695   8.0701   8.0703   8.1291   8.1298   8.1300   8.1300
     8.2144   8.2145   8.2149   8.2156   8.2159   8.2162   8.2166   8.2169
     8.2215   8.2218   8.2233   8.2239   8.4165   8.4166   8.4173   8.4178
     8.4178   8.4180   8.4184   8.4185   8.4968   8.4973   8.4975   8.4978
     8.5237   8.5242   8.5250   8.5260   8.5447   8.5468   8.6490   8.6494
     8.6906   8.6907   8.7130   8.7137   8.7147   8.7156   8.7348   8.7355
     8.7358   8.7361   8.9733   8.9737   8.9739   8.9740   8.9743   8.9744
     8.9746   8.9748   8.9830   8.9833   8.9835   8.9836   8.9837   8.9838
     8.9844   8.9844   9.0330   9.0348   9.0822   9.0824   9.0846   9.0846
     9.1717   9.1718   9.1737   9.1741   9.1880   9.1885   9.1886   9.1886
     9.1887   9.1888   9.1891   9.1894   9.2750   9.2751   9.2754   9.2763
     9.3403   9.3407   9.3408   9.3413   9.4217   9.4222   9.4223   9.4223
     9.4223   9.4226   9.4228   9.4234   9.5118   9.5119   9.5138   9.5142
     9.5195   9.5199   9.5211   9.5219   9.5672   9.5673   9.5677   9.5678
     9.5694   9.5696   9.5700   9.5702   9.6937   9.6949   9.7007   9.7029
     9.8153   9.8161   9.8175   9.8186  10.3159  10.3184

          k = 0.0000-0.3248-0.3248 ( 83080 PWs)   bands (ev):

   -14.2756 -14.2744 -14.2735 -14.2722 -14.2197 -14.2191 -14.2189 -14.2186
   -14.2186 -14.2181 -14.2179 -14.2177 -14.2176 -14.2175 -14.2168 -14.2167
   -14.2166 -14.2166 -14.2161 -14.2160 -14.2159 -14.2159 -14.2155 -14.2155
   -14.2154 -14.2154 -14.2151 -14.2147 -14.2140 -14.2118 -14.2089 -14.2088
   -14.2082 -14.2079 -14.2072 -14.2072 -14.2063 -14.2051 -14.1825 -14.1825
   -14.1823 -14.1822 -14.1817 -14.1813 -14.1813 -14.1812 -14.1807 -14.1805
   -14.1799 -14.1782 -14.1416 -14.1405 -14.1396 -14.1382 -14.0847 -14.0843
   -14.0836 -14.0834 -14.0829 -14.0829 -14.0820 -14.0817 -14.0604 -14.0601
   -14.0600 -14.0600 -14.0210 -14.0204 -14.0198 -14.0197 -14.0196 -14.0193
   -14.0193 -14.0190 -14.0185 -14.0184 -14.0184 -14.0184 -14.0177 -14.0176
   -14.0171 -14.0166 -13.9912 -13.9909 -13.9904 -13.9903 -13.9895 -13.9893
   -13.9891 -13.9891 -13.9884 -13.9883 -13.9883 -13.9881 -13.9877 -13.9870
   -13.9869 -13.9868 -13.9865 -13.9861 -13.9857 -13.9856 -13.9856 -13.9849
   -13.9842 -13.9839 -13.9833 -13.9823 -13.9820 -13.9819 -13.9811 -13.9786
   -13.9778 -13.9776 -13.9731 -13.9726 -13.9721 -13.9718 -13.9711 -13.9711
   -13.9702 -13.9687 -13.9448 -13.9436 -13.9428 -13.9413 -13.9404 -13.9390
   -13.9378 -13.9376 -13.9376 -13.9371 -13.9369 -13.9368 -13.9360 -13.9359
   -13.9358 -13.9358 -13.9356 -13.9355 -13.9350 -13.9350 -13.9350 -13.9349
   -13.9347 -13.9346 -13.9342 -13.9341 -13.9338 -13.9337 -13.9335 -13.9332
   -13.9331 -13.9330 -13.9325 -13.9324 -13.9324 -13.9323 -13.9315 -13.9309
   -13.9308 -13.9289 -13.9232 -13.9232 -13.9225 -13.9224 -13.9221 -13.9220
   -13.9219 -13.9216 -13.9182 -13.9180 -13.9177 -13.9176 -13.9167 -13.9158
   -13.9158 -13.9152 -13.9151 -13.9150 -13.9148 -13.9147 -13.9145 -13.9144
   -13.9143 -13.9141 -13.9140 -13.9138 -13.9138 -13.9135 -13.9135 -13.9133
   -13.9132 -13.9132 -13.9129 -13.9129 -13.9125 -13.9123 -13.9121 -13.9118
   -13.9108 -13.9070 -13.9025 -13.9020 -13.9011 -13.9008 -13.9000 -13.8995
   -13.8988 -13.8985 -13.8983 -13.8982 -13.8980 -13.8977 -13.8974 -13.8972
   -13.8972 -13.8969 -13.8968 -13.8968 -13.8966 -13.8965 -13.8962 -13.8961
   -13.8960 -13.8959 -13.8954 -13.8954 -13.8951 -13.8947 -13.8934 -13.8924
   -13.8913 -13.8912 -13.8909 -13.8904 -13.8899 -13.8897 -13.8893 -13.8891
   -13.8889 -13.8889 -13.8888 -13.8888 -13.8882 -13.8881 -13.8880 -13.8880
   -13.8880 -13.8875 -13.8874 -13.8874 -13.8874 -13.8871 -13.8869 -13.8867
   -13.8865 -13.8864 -13.8863 -13.8861 -13.8858 -13.8856 -13.8855 -13.8847
   -13.8847 -13.8841 -13.8835 -13.8834 -13.8828 -13.8779 -10.0201 -10.0193
   -10.0184 -10.0172  -9.1338  -9.1333  -9.1328  -9.1322  -9.1321  -9.1314
    -9.1311  -9.1310  -8.9975  -8.9967  -8.9965  -8.9963  -8.9955  -8.9954
    -8.9942  -8.9938  -8.6664  -8.6654  -8.3266  -8.3260  -8.3256  -8.3256
    -8.3253  -8.3253  -8.3251  -8.3246  -8.3246  -8.3245  -8.3244  -8.3240
    -8.3237  -8.3236  -8.3222  -8.3219  -8.0925  -8.0922  -8.0921  -8.0912
    -7.9333  -7.9330  -7.9323  -7.9316  -7.6330  -7.6324  -7.5313  -7.5309
    -7.5309  -7.5306  -7.5300  -7.5299  -7.5287  -7.5282  -7.4846  -7.4841
    -7.4836  -7.4828  -6.9785  -6.9781  -6.9774  -6.9772  -6.9765  -6.9762
    -6.9756  -6.9744  -6.8341  -6.8331  -6.8330  -6.8330  -6.7179  -6.7171
    -6.7165  -6.7163  -6.7160  -6.7159  -6.7154  -6.7149  -6.5820  -6.5809
    -6.5804  -6.5798  -6.5797  -6.5796  -6.5795  -6.5794  -6.5788  -6.5788
    -6.5787  -6.5787  -6.5782  -6.5780  -6.5774  -6.5764  -6.5544  -6.5533
    -6.5525  -6.5508  -6.5084  -6.5077  -6.5070  -6.5070  -6.5068  -6.5067
    -6.5065  -6.5061   0.8565   0.8586   0.8589   0.8590   0.8596   0.8599
     0.8608   0.8615   0.8932   0.8956   0.8963   0.8975   1.2659   1.2667
     1.2668   1.2673   1.7961   1.7976   1.7979   1.7982   1.7983   1.7984
     1.7986   1.7990   1.7991   1.7991   1.7992   1.7997   1.7998   1.8001
     1.8006   1.8012   2.5019   2.5036   2.5041   2.5043   2.5051   2.5053
     2.5059   2.5067   3.0219   3.0228   3.0229   3.0234   3.0234   3.0235
     3.0246   3.0255   3.4796   3.4802   3.9776   3.9777   3.9782   3.9784
     3.9785   3.9788   3.9789   3.9789   4.2321   4.2324   4.2328   4.2332
     4.2333   4.2334   4.2335   4.2339   4.2339   4.2340   4.2340   4.2343
     4.2344   4.2345   4.2347   4.2349   4.4256   4.4264   4.4268   4.4274
     4.7479   4.7481   4.7483   4.7483   5.2379   5.2389   5.2391   5.2397
     5.3450   5.3451   5.3454   5.3454   5.3456   5.3462   5.3463   5.3464
     5.4216   5.4217   5.4222   5.4222   5.4224   5.4224   5.4228   5.4232
     5.4391   5.4395   5.4397   5.4399   5.4401   5.4402   5.4402   5.4404
     5.4409   5.4410   5.4411   5.4412   5.4414   5.4419   5.4425   5.4436
     5.5634   5.5643   5.9613   5.9618   5.9627   5.9645   6.2002   6.2004
     6.2006   6.2008   6.2008   6.2008   6.2018   6.2022   6.3291   6.3312
     6.3318   6.3318   6.3321   6.3323   6.3325   6.3329   6.4762   6.4766
     6.4776   6.4778   6.4781   6.4784   6.4791   6.4800   6.5931   6.5946
     6.5948   6.5950   6.6422   6.6430   6.6438   6.6449   6.6912   6.6919
     6.6923   6.6929   6.6931   6.6938   6.6946   6.6952   6.8227   6.8228
     6.8235   6.8236   6.8408   6.8416   7.5992   7.5995   7.6004   7.6017
     7.7365   7.7374   7.7383   7.7392   7.7789   7.7791   7.7798   7.7798
     7.7804   7.7809   7.7811   7.7822   7.8448   7.8452   7.8460   7.8462
     7.8464   7.8468   7.8475   7.8479   7.9355   7.9358   7.9366   7.9367
     7.9370   7.9372   7.9373   7.9375   8.2066   8.2077   8.2087   8.2087
     8.2089   8.2090   8.2091   8.2094   8.2095   8.2096   8.2096   8.2098
     8.2099   8.2103   8.2104   8.2109   8.2296   8.2298   8.4160   8.4165
     8.4904   8.4910   8.4914   8.4922   8.6292   8.6299   8.6304   8.6307
     8.6313   8.6315   8.6318   8.6335   8.6663   8.6670   8.6671   8.6678
     8.6835   8.6841   8.6841   8.6844   8.6847   8.6848   8.6850   8.6851
     8.6853   8.6853   8.6856   8.6857   8.6860   8.6860   8.6864   8.6875
     8.7070   8.7080   8.7087   8.7091   9.0713   9.0718   9.0783   9.0788
     9.0791   9.0793   9.0797   9.0797   9.0802   9.0804   9.1739   9.1740
     9.1741   9.1741   9.1747   9.1751   9.1753   9.1753   9.3072   9.3076
     9.3076   9.3080   9.3111   9.3115   9.3115   9.3117   9.3736   9.3741
     9.3747   9.3749   9.3753   9.3753   9.3756   9.3758   9.3759   9.3760
     9.3763   9.3766   9.3770   9.3773   9.3781   9.3785   9.5506   9.5507
     9.5517   9.5518   9.5527   9.5528   9.5538   9.5545   9.5628   9.5634
     9.5636   9.5642   9.5646   9.5651   9.5658   9.5668   9.5917   9.5920
     9.5928   9.5932  10.1708  10.1722  10.1731  10.1750

          k = 0.3333 0.0000 0.0000 ( 83060 PWs)   bands (ev):

   -14.2716 -14.2697 -14.2696 -14.2689 -14.2689 -14.2649 -14.2646 -14.2644
   -14.2637 -14.2601 -14.2599 -14.2597 -14.2584 -14.2378 -14.2376 -14.2370
   -14.2363 -14.2317 -14.2310 -14.2274 -14.2267 -14.2261 -14.2255 -14.2072
   -14.2069 -14.2063 -14.2055 -14.2002 -14.1868 -14.1863 -14.1856 -14.1853
   -14.1645 -14.1644 -14.1638 -14.1637 -14.1626 -14.1622 -14.1618 -14.1609
   -14.1382 -14.1380 -14.1378 -14.1377 -14.1374 -14.1369 -14.1367 -14.1361
   -14.1193 -14.1188 -14.1183 -14.1181 -14.1000 -14.0998 -14.0987 -14.0971
   -14.0969 -14.0962 -14.0951 -14.0680 -14.0677 -14.0676 -14.0669 -14.0529
   -14.0525 -14.0522 -14.0519 -14.0479 -14.0332 -14.0326 -14.0322 -14.0318
   -14.0317 -14.0311 -14.0308 -14.0303 -14.0289 -14.0222 -14.0220 -14.0216
   -14.0207 -14.0200 -14.0196 -14.0192 -14.0191 -14.0190 -14.0184 -14.0182
   -14.0180 -14.0176 -14.0176 -14.0171 -14.0165 -14.0158 -14.0125 -14.0086
   -14.0040 -14.0033 -14.0026 -14.0021 -13.9951 -13.9949 -13.9942 -13.9937
   -13.9838 -13.9833 -13.9825 -13.9825 -13.9819 -13.9688 -13.9684 -13.9676
   -13.9668 -13.9666 -13.9662 -13.9654 -13.9644 -13.9586 -13.9573 -13.9569
   -13.9565 -13.9556 -13.9517 -13.9513 -13.9505 -13.9497 -13.9496 -13.9494
   -13.9490 -13.9489 -13.9487 -13.9484 -13.9483 -13.9477 -13.9476 -13.9475
   -13.9473 -13.9465 -13.9461 -13.9454 -13.9452 -13.9448 -13.9439 -13.9434
   -13.9433 -13.9431 -13.9429 -13.9428 -13.9423 -13.9415 -13.9409 -13.9401
   -13.9384 -13.9378 -13.9375 -13.9373 -13.9368 -13.9361 -13.9356 -13.9351
   -13.9280 -13.9244 -13.9227 -13.9220 -13.9196 -13.9194 -13.9182 -13.9178
   -13.9170 -13.9165 -13.9164 -13.9163 -13.9156 -13.9151 -13.9148 -13.9143
   -13.9140 -13.9124 -13.9120 -13.9114 -13.9113 -13.9097 -13.9094 -13.9092
   -13.9086 -13.9081 -13.9045 -13.9037 -13.9035 -13.9024 -13.9019 -13.9017
   -13.9015 -13.9012 -13.9008 -13.9008 -13.9006 -13.9004 -13.9002 -13.9000
   -13.8998 -13.8998 -13.8995 -13.8993 -13.8993 -13.8992 -13.8988 -13.8982
   -13.8961 -13.8958 -13.8953 -13.8951 -13.8949 -13.8947 -13.8943 -13.8942
   -13.8939 -13.8935 -13.8933 -13.8933 -13.8931 -13.8929 -13.8928 -13.8925
   -13.8922 -13.8921 -13.8919 -13.8916 -13.8915 -13.8912 -13.8910 -13.8908
   -13.8906 -13.8903 -13.8902 -13.8899 -13.8892 -13.8892 -13.8891 -13.8887
   -13.8887 -13.8884 -13.8881 -13.8880 -13.8880 -13.8878 -13.8874 -13.8873
   -13.8872 -13.8871 -13.8869 -13.8868 -13.8867 -13.8867 -13.8866 -13.8863
   -13.8863 -13.8861 -13.8857 -13.8856 -13.8849 -13.8848 -13.8847 -13.8847
   -13.8846 -13.8841 -13.8836 -13.8829 -13.8824 -13.8776 -10.1348  -9.7694
    -9.6694  -9.6689  -9.6685  -9.6679  -9.3276  -9.3271  -9.3267  -9.3260
    -9.2317  -9.2312  -9.2309  -9.2308  -8.9259  -8.9255  -8.9250  -8.9250
    -8.4590  -8.4449  -8.4446  -8.4440  -8.4435  -8.3937  -8.3931  -8.3927
    -8.3917  -8.2443  -8.2436  -8.2434  -8.2424  -8.1849  -8.1842  -8.1837
    -8.1829  -8.1764  -8.1759  -8.1755  -8.1749  -8.0619  -8.0615  -8.0609
    -8.0606  -7.8566  -7.8559  -7.8556  -7.8549  -7.8497  -7.8492  -7.8486
    -7.8478  -7.7273  -7.4678  -7.4673  -7.4668  -7.4659  -7.3210  -7.3207
    -7.1632  -7.1628  -7.1622  -7.1613  -7.0287  -7.0282  -7.0183  -7.0180
    -7.0179  -7.0172  -6.9046  -6.9043  -6.9037  -6.9031  -6.8618  -6.8015
    -6.8014  -6.8012  -6.8004  -6.7544  -6.7452  -6.7450  -6.7444  -6.7438
    -6.5570  -6.5562  -6.5555  -6.5546  -6.5408  -6.5402  -6.5392  -6.5388
    -6.5356  -6.5351  -6.5345  -6.5337  -6.5061  -6.5054  -6.5048  -6.5041
    -6.5035  -6.5031  -6.5028  -6.5019  -6.4749  -6.4743  -6.4741  -6.4732
    -6.4334  -6.4328   0.3944   0.4240   0.7552   0.7556   0.7557   0.7564
     0.9534   1.2348   1.2356   1.2362   1.2364   1.3254   1.3272   1.3279
     1.3284   1.3599   1.3610   1.3617   1.3622   1.3910   1.3915   1.3919
     1.3928   1.8772   1.8780   1.8783   1.8785   1.8790   1.8792   1.8794
     1.8802   1.9345   2.1876   2.1890   2.1893   2.1901   2.6559   2.6567
     2.6571   2.6576   3.3892   3.3898   3.3902   3.3908   3.4921   3.4927
     3.4932   3.4934   3.6183   3.6188   3.6194   3.6195   3.8605   3.8611
     3.8617   3.8623   4.0515   4.0521   4.0526   4.0531   4.2312   4.2313
     4.2318   4.2325   4.2764   4.2769   4.2773   4.2777   4.3367   4.3368
     4.3376   4.3377   4.5205   4.5211   4.5214   4.5221   4.7111   4.7113
     4.7115   4.7122   4.9009   4.9015   4.9016   4.9024   4.9800   4.9800
     5.0483   5.0968   5.0970   5.0974   5.0978   5.1018   5.1020   5.1025
     5.1028   5.1092   5.1294   5.1295   5.1303   5.1306   5.2221   5.3525
     5.3535   5.4833   5.5453   5.5459   5.5464   5.5472   5.7145   5.7153
     5.7822   5.7881   5.7883   5.7889   5.7895   5.8240   5.8245   5.8248
     5.8255   5.9363   5.9367   5.9372   5.9373   5.9825   5.9831   5.9834
     5.9842   6.1904   6.1911   6.1916   6.1924   6.3139   6.3674   6.3677
     6.3682   6.3687   6.4325   6.4327   6.4329   6.4332   6.6295   6.6296
     6.6299   6.6302   6.6755   6.7072   6.7077   6.7088   6.7090   6.7312
     6.7316   6.7320   6.7325   6.7601   6.7766   6.7768   6.7775   6.7783
     6.8112   6.8115   6.8321   6.8331   6.9095   6.9105   6.9112   6.9121
     6.9262   7.1569   7.1576   7.1581   7.1584   7.1600   7.1605   7.1609
     7.1615   7.3749   7.4118   7.4118   7.4124   7.4124   7.4590   7.4592
     7.4595   7.4599   7.7835   7.7839   7.7843   7.7847   7.7961   7.7964
     7.7966   7.7972   7.8628   7.8634   7.8637   7.8644   7.9307   7.9310
     7.9312   7.9316   7.9479   7.9481   7.9692   7.9959   7.9963   7.9968
     7.9971   8.1107   8.1113   8.1116   8.1118   8.2333   8.2335   8.2337
     8.2339   8.2344   8.2347   8.2348   8.2352   8.2456   8.2460   8.2463
     8.2469   8.3089   8.3091   8.3093   8.3097   8.4068   8.4070   8.4072
     8.4074   8.4951   8.4955   8.4956   8.4963   8.5757   8.5762   8.5769
     8.5770   8.6538   8.6545   8.6548   8.6553   8.7454   8.7641   8.7642
     8.8639   8.8648   8.8651   8.8656   8.8777   8.8783   8.8786   8.8791
     8.8974   8.8979   8.8984   8.8988   8.9865   8.9868   8.9872   8.9875
     8.9908   8.9915   8.9920   8.9924   8.9987   8.9992   8.9996   8.9996
     9.0336   9.0337   9.0337   9.0343   9.1438   9.1441   9.1448   9.1453
     9.1725   9.1730   9.1733   9.1738   9.3015   9.3019   9.3024   9.3028
     9.3063   9.3065   9.3071   9.3074   9.3678   9.3681   9.3685   9.3689
     9.3691   9.3693   9.3698   9.3701   9.4962   9.4963   9.6084   9.6088
     9.6092   9.6096   9.6808   9.6809   9.6875   9.6879   9.6882   9.6889
     9.7471   9.7475   9.7479   9.7484   9.8134   9.8142   9.8149   9.8160
     9.9182   9.9192   9.9198   9.9210  10.0259  10.3769

          k = 0.3333 0.0000-0.3248 ( 83068 PWs)   bands (ev):

   -14.2751 -14.2750 -14.2734 -14.2731 -14.2725 -14.2715 -14.2596 -14.2575
   -14.2505 -14.2504 -14.2497 -14.2495 -14.2468 -14.2462 -14.2458 -14.2454
   -14.2450 -14.2433 -14.2418 -14.2397 -14.2233 -14.2232 -14.2214 -14.2208
   -14.1971 -14.1953 -14.1867 -14.1867 -14.1860 -14.1856 -14.1837 -14.1834
   -14.1814 -14.1811 -14.1795 -14.1793 -14.1653 -14.1653 -14.1456 -14.1455
   -14.1438 -14.1432 -14.1415 -14.1415 -14.1411 -14.1409 -14.1306 -14.1303
   -14.1286 -14.1285 -14.1115 -14.1099 -14.1061 -14.1041 -14.0882 -14.0864
   -14.0790 -14.0789 -14.0775 -14.0774 -14.0766 -14.0763 -14.0761 -14.0749
   -14.0480 -14.0479 -14.0365 -14.0360 -14.0346 -14.0343 -14.0334 -14.0316
   -14.0294 -14.0278 -14.0225 -14.0223 -14.0216 -14.0212 -14.0210 -14.0207
   -14.0202 -14.0201 -14.0197 -14.0195 -14.0195 -14.0188 -14.0184 -14.0183
   -14.0181 -14.0180 -14.0179 -14.0178 -14.0174 -14.0173 -14.0172 -14.0168
   -14.0165 -14.0163 -14.0156 -14.0123 -13.9996 -13.9977 -13.9855 -13.9851
   -13.9825 -13.9820 -13.9810 -13.9808 -13.9781 -13.9761 -13.9717 -13.9715
   -13.9699 -13.9692 -13.9643 -13.9642 -13.9637 -13.9630 -13.9604 -13.9600
   -13.9570 -13.9549 -13.9530 -13.9526 -13.9515 -13.9506 -13.9493 -13.9490
   -13.9489 -13.9488 -13.9486 -13.9484 -13.9478 -13.9475 -13.9471 -13.9469
   -13.9465 -13.9463 -13.9453 -13.9450 -13.9444 -13.9440 -13.9434 -13.9432
   -13.9430 -13.9429 -13.9427 -13.9424 -13.9421 -13.9415 -13.9410 -13.9404
   -13.9391 -13.9373 -13.9369 -13.9369 -13.9352 -13.9348 -13.9336 -13.9324
   -13.9317 -13.9304 -13.9202 -13.9191 -13.9182 -13.9178 -13.9171 -13.9166
   -13.9164 -13.9163 -13.9160 -13.9155 -13.9151 -13.9148 -13.9145 -13.9144
   -13.9136 -13.9123 -13.9122 -13.9119 -13.9109 -13.9092 -13.9083 -13.9076
   -13.9073 -13.9065 -13.9061 -13.9055 -13.9054 -13.9047 -13.9035 -13.9033
   -13.9025 -13.9019 -13.9017 -13.9014 -13.9010 -13.9007 -13.9004 -13.9000
   -13.8996 -13.8993 -13.8989 -13.8986 -13.8976 -13.8974 -13.8971 -13.8968
   -13.8962 -13.8958 -13.8954 -13.8949 -13.8947 -13.8945 -13.8944 -13.8941
   -13.8939 -13.8937 -13.8934 -13.8933 -13.8929 -13.8927 -13.8922 -13.8921
   -13.8920 -13.8918 -13.8915 -13.8913 -13.8910 -13.8910 -13.8909 -13.8905
   -13.8903 -13.8901 -13.8899 -13.8895 -13.8894 -13.8892 -13.8891 -13.8889
   -13.8888 -13.8886 -13.8885 -13.8884 -13.8883 -13.8880 -13.8879 -13.8877
   -13.8876 -13.8875 -13.8874 -13.8873 -13.8872 -13.8869 -13.8867 -13.8866
   -13.8865 -13.8863 -13.8860 -13.8856 -13.8855 -13.8851 -13.8849 -13.8845
   -13.8843 -13.8840 -13.8836 -13.8835 -13.8824 -13.8776 -10.0170 -10.0151
    -9.6573  -9.6553  -9.5557  -9.5554  -9.5538  -9.5535  -9.2224  -9.2220
    -9.2204  -9.2201  -9.1245  -9.1237  -8.8133  -8.8126  -8.7715  -8.7712
    -8.7709  -8.7700  -8.5153  -8.5150  -8.5148  -8.5139  -8.4021  -8.4001
    -8.3892  -8.3883  -8.3872  -8.3866  -8.1928  -8.1923  -8.1908  -8.1903
    -8.1434  -8.1426  -8.1414  -8.1409  -8.0367  -8.0363  -7.9227  -7.9223
    -7.9219  -7.9215  -7.8470  -7.8463  -7.8450  -7.8443  -7.7560  -7.7540
    -7.7441  -7.7421  -7.5158  -7.5144  -7.2764  -7.2761  -7.2757  -7.2756
    -7.2384  -7.2364  -7.2200  -7.2192  -7.2180  -7.2172  -7.0275  -7.0271
    -7.0268  -7.0265  -6.9701  -6.9693  -6.9682  -6.9675  -6.9656  -6.9635
    -6.7466  -6.7463  -6.6324  -6.6318  -6.6304  -6.6295  -6.6117  -6.6117
    -6.5923  -6.5913  -6.5853  -6.5835  -6.5556  -6.5548  -6.5543  -6.5539
    -6.5479  -6.5474  -6.5460  -6.5453  -6.5139  -6.5134  -6.5117  -6.5112
    -6.5063  -6.5057  -6.4968  -6.4963  -6.4948  -6.4939  -6.4616  -6.4595
    -6.4453  -6.4431   0.6500   0.6522   0.6596   0.6618   0.8181   0.8187
     0.8192   0.8196   1.0505   1.0510   1.0518   1.0519   1.0729   1.0749
     1.5119   1.5128   1.5142   1.5150   1.5673   1.5687   1.5700   1.5709
     1.7339   1.7342   1.7794   1.7799   1.7802   1.7809   1.9165   1.9184
     2.2759   2.2766   2.2770   2.2775   2.3159   2.3163   2.3951   2.3954
     2.9133   2.9142   2.9146   2.9148   3.1324   3.1330   3.1333   3.1338
     3.4979   3.4985   3.4998   3.5003   3.6173   3.6178   3.8326   3.8331
     3.8334   3.8340   4.1902   4.1903   4.1909   4.1911   4.2265   4.2268
     4.4533   4.4539   4.4540   4.4546   4.5339   4.5349   4.5878   4.5889
     4.5991   4.5999   4.6012   4.6018   4.6767   4.6768   4.6773   4.6779
     4.6781   4.6797   4.7879   4.7889   4.8176   4.8180   4.9789   4.9791
     4.9796   4.9798   5.0294   5.0301   5.0821   5.0824   5.1148   5.1149
     5.1326   5.1339   5.2434   5.2439   5.2770   5.2776   5.2788   5.2795
     5.3333   5.3339   5.3341   5.3346   5.4315   5.4321   5.6274   5.6281
     5.6286   5.6286   5.6940   5.6942   5.6943   5.6956   5.7847   5.7851
     5.7855   5.7856   5.9532   5.9541   5.9553   5.9561   5.9977   5.9982
     6.0701   6.0702   6.0706   6.0710   6.2137   6.2139   6.2152   6.2155
     6.3707   6.3708   6.4683   6.4687   6.4700   6.4706   6.5050   6.5058
     6.5377   6.5392   6.5442   6.5446   6.5455   6.5459   6.5558   6.5571
     6.5711   6.5714   6.7668   6.7676   6.8806   6.8809   6.8811   6.8816
     7.1030   7.1035   7.1051   7.1053   7.1300   7.1309   7.1316   7.1319
     7.2723   7.2727   7.3087   7.3089   7.3989   7.4003   7.4090   7.4097
     7.4101   7.4103   7.4127   7.4140   7.4424   7.4430   7.4432   7.4434
     7.5291   7.5294   7.5301   7.5303   7.5475   7.5481   7.6603   7.6620
     7.7513   7.7515   7.7530   7.7531   7.8346   7.8348   7.8885   7.8897
     7.8901   7.8902   7.9019   7.9022   8.0049   8.0053   8.0064   8.0065
     8.0266   8.0287   8.0604   8.0616   8.1318   8.1335   8.1500   8.1501
     8.1504   8.1509   8.2192   8.2200   8.2204   8.2206   8.2793   8.2798
     8.3481   8.3485   8.3791   8.3800   8.3803   8.3811   8.4464   8.4469
     8.4474   8.4481   8.4644   8.4648   8.5504   8.5509   8.5522   8.5523
     8.7068   8.7071   8.7074   8.7077   8.7108   8.7112   8.7124   8.7131
     8.7498   8.7504   8.7520   8.7540   8.8678   8.8679   8.8693   8.8693
     8.8694   8.8700   8.8704   8.8706   8.9266   8.9269   8.9273   8.9274
     8.9423   8.9426   9.0118   9.0120   9.0125   9.0129   9.0425   9.0428
     9.0524   9.0527   9.0534   9.0538   9.2344   9.2346   9.2392   9.2397
     9.2408   9.2415   9.3155   9.3175   9.3451   9.3454   9.3456   9.3460
     9.3775   9.3782   9.3790   9.3792   9.3798   9.3814   9.3975   9.3976
     9.3977   9.3984   9.4531   9.4555   9.4779   9.4786   9.4859   9.4862
     9.4863   9.4868   9.4993   9.4997   9.5008   9.5016   9.6314   9.6325
     9.6569   9.6592   9.8243   9.8248   9.8264   9.8271   9.8800   9.8807
     9.8820   9.8829   9.9957   9.9980  10.2544  10.2568

          k = 0.3333-0.3248-0.3248 ( 83032 PWs)   bands (ev):

   -14.2683 -14.2681 -14.2675 -14.2673 -14.2665 -14.2664 -14.2657 -14.2654
   -14.2630 -14.2626 -14.2621 -14.2608 -14.2505 -14.2492 -14.2484 -14.2471
   -14.2420 -14.2417 -14.2331 -14.2329 -14.2323 -14.2311 -14.1958 -14.1946
   -14.1938 -14.1929 -14.1875 -14.1874 -14.1834 -14.1831 -14.1826 -14.1824
   -14.1816 -14.1816 -14.1807 -14.1796 -14.1588 -14.1586 -14.1581 -14.1578
   -14.1571 -14.1570 -14.1562 -14.1558 -14.1203 -14.1199 -14.1180 -14.1169
   -14.1160 -14.1147 -14.1047 -14.1044 -14.1042 -14.1040 -14.0979 -14.0978
   -14.0972 -14.0965 -14.0935 -14.0927 -14.0558 -14.0554 -14.0550 -14.0549
   -14.0540 -14.0540 -14.0533 -14.0525 -14.0375 -14.0367 -14.0362 -14.0353
   -14.0351 -14.0340 -14.0306 -14.0296 -14.0288 -14.0281 -14.0214 -14.0213
   -14.0206 -14.0197 -14.0193 -14.0186 -14.0185 -14.0181 -14.0178 -14.0178
   -14.0172 -14.0169 -14.0167 -14.0167 -14.0163 -14.0157 -14.0149 -14.0117
   -13.9947 -13.9942 -13.9935 -13.9934 -13.9925 -13.9925 -13.9918 -13.9915
   -13.9898 -13.9888 -13.9883 -13.9872 -13.9768 -13.9755 -13.9747 -13.9736
   -13.9666 -13.9664 -13.9605 -13.9600 -13.9595 -13.9593 -13.9585 -13.9584
   -13.9576 -13.9575 -13.9566 -13.9563 -13.9555 -13.9543 -13.9501 -13.9497
   -13.9473 -13.9472 -13.9470 -13.9464 -13.9459 -13.9456 -13.9456 -13.9450
   -13.9448 -13.9447 -13.9447 -13.9445 -13.9440 -13.9439 -13.9438 -13.9438
   -13.9434 -13.9429 -13.9428 -13.9421 -13.9420 -13.9416 -13.9411 -13.9411
   -13.9400 -13.9399 -13.9389 -13.9381 -13.9375 -13.9367 -13.9356 -13.9346
   -13.9339 -13.9322 -13.9211 -13.9202 -13.9196 -13.9193 -13.9165 -13.9164
   -13.9155 -13.9150 -13.9146 -13.9143 -13.9141 -13.9136 -13.9121 -13.9119
   -13.9116 -13.9115 -13.9115 -13.9105 -13.9103 -13.9094 -13.9087 -13.9082
   -13.9040 -13.9033 -13.9030 -13.9027 -13.9021 -13.9014 -13.9012 -13.9010
   -13.9007 -13.9005 -13.9002 -13.9001 -13.8998 -13.8997 -13.8996 -13.8993
   -13.8991 -13.8991 -13.8988 -13.8982 -13.8982 -13.8975 -13.8973 -13.8972
   -13.8966 -13.8961 -13.8959 -13.8953 -13.8953 -13.8946 -13.8939 -13.8937
   -13.8937 -13.8935 -13.8931 -13.8930 -13.8928 -13.8927 -13.8926 -13.8925
   -13.8922 -13.8922 -13.8921 -13.8920 -13.8918 -13.8915 -13.8914 -13.8912
   -13.8910 -13.8907 -13.8907 -13.8902 -13.8901 -13.8899 -13.8898 -13.8893
   -13.8891 -13.8891 -13.8889 -13.8889 -13.8885 -13.8885 -13.8883 -13.8882
   -13.8880 -13.8878 -13.8876 -13.8876 -13.8875 -13.8872 -13.8870 -13.8865
   -13.8863 -13.8858 -13.8856 -13.8855 -13.8850 -13.8849 -13.8849 -13.8846
   -13.8845 -13.8839 -13.8836 -13.8830 -13.8829 -13.8779  -9.8992  -9.8985
    -9.8976  -9.8963  -9.5459  -9.5452  -9.5443  -9.5429  -9.0259  -9.0254
    -9.0249  -9.0243  -9.0242  -9.0235  -9.0232  -9.0230  -8.7280  -8.7274
    -8.7270  -8.7264  -8.7263  -8.7255  -8.7253  -8.7250  -8.5882  -8.5873
    -8.3734  -8.3726  -8.3455  -8.3449  -8.3440  -8.3423  -8.0015  -8.0007
    -8.0004  -7.9998  -7.9996  -7.9989  -7.9987  -7.9978  -7.8813  -7.8810
    -7.8487  -7.8484  -7.8478  -7.8471  -7.7731  -7.7728  -7.7718  -7.7701
    -7.6501  -7.6498  -7.6492  -7.6484  -7.5150  -7.5144  -7.3710  -7.3706
    -7.3700  -7.3692  -7.2064  -7.2058  -7.0743  -7.0739  -7.0733  -7.0724
    -6.9082  -6.9078  -6.9070  -6.9069  -6.9062  -6.9059  -6.9053  -6.9041
    -6.7393  -6.7390  -6.7382  -6.7381  -6.7373  -6.7371  -6.7366  -6.7354
    -6.5746  -6.5740  -6.5373  -6.5361  -6.5354  -6.5340  -6.5228  -6.5220
    -6.5212  -6.5210  -6.5203  -6.5202  -6.5195  -6.5184  -6.5133  -6.5122
    -6.5115  -6.5107  -6.4722  -6.4712  -6.4705  -6.4703  -6.4691  -6.4689
    -6.4686  -6.4668   0.6181   0.6186   0.8834   0.8855   0.8863   0.8874
     0.9003   0.9024   0.9032   0.9043   1.0145   1.0150   1.0158   1.0168
     1.3352   1.3360   1.3363   1.3369   1.3369   1.3376   1.3377   1.3381
     1.9825   1.9830   1.9834   1.9850   2.2635   2.2642   2.3375   2.3386
     2.3390   2.3392   2.3400   2.3400   2.3406   2.3414   2.5026   2.5041
     2.5047   2.5049   2.5056   2.5058   2.5064   2.5072   3.1430   3.1437
     3.8613   3.8617   3.8622   3.8626   4.0351   4.0355   4.0359   4.0364
     4.0715   4.0719   4.0721   4.0728   4.0729   4.0730   4.0733   4.0738
     4.0912   4.0913   4.2668   4.2674   4.2677   4.2681   4.5653   4.5658
     4.5663   4.5663   4.5668   4.5672   4.5676   4.5680   4.7115   4.7118
     4.7124   4.7127   4.7847   4.7851   4.7854   4.7857   4.8030   4.8032
     4.8042   4.8056   5.0709   5.0711   5.0714   5.0716   5.0721   5.0722
     5.0731   5.0742   5.3751   5.3761   5.3763   5.3770   5.4974   5.4980
     5.4984   5.4988   5.4991   5.4997   5.4998   5.5007   5.6744   5.6752
     5.7144   5.7148   5.7681   5.7691   5.7693   5.7700   5.8165   5.8169
     5.8172   5.8178   5.8726   5.8730   5.8736   5.8751   6.0365   6.0369
     6.0373   6.0376   6.2896   6.2905   6.3071   6.3073   6.3078   6.3083
     6.3753   6.3757   6.3761   6.3762   6.3769   6.3770   6.3775   6.3783
     6.3995   6.3998   6.4008   6.4020   6.6752   6.6759   6.6768   6.6778
     6.7384   6.7387   6.7720   6.7726   6.8410   6.8420   6.8427   6.8435
     6.8868   6.8875   6.8879   6.8883   6.9164   6.9165   6.9540   6.9549
     7.1695   7.1699   7.1701   7.1704   7.1706   7.1707   7.1714   7.1719
     7.2550   7.2555   7.4622   7.4624   7.4632   7.4636   7.7182   7.7189
     7.7195   7.7200   7.7201   7.7206   7.7208   7.7217   7.8391   7.8398
     7.8407   7.8416   7.9649   7.9653   7.9658   7.9665   7.9959   7.9968
     7.9973   7.9974   8.0376   8.0380   8.0386   8.0386   8.0392   8.0397
     8.0401   8.0403   8.1084   8.1086   8.1096   8.1099   8.1103   8.1104
     8.1109   8.1111   8.1436   8.1439   8.1447   8.1450   8.2142   8.2149
     8.2150   8.2155   8.3039   8.3050   8.3058   8.3067   8.5084   8.5087
     8.5093   8.5096   8.5099   8.5102   8.5107   8.5113   8.5175   8.5178
     8.5182   8.5186   8.5187   8.5189   8.5195   8.5198   8.7243   8.7249
     8.7257   8.7257   8.7997   8.8004   8.8009   8.8010   8.9309   8.9312
     8.9317   8.9319   8.9325   8.9327   8.9336   8.9339   9.0025   9.0026
     9.0542   9.0545   9.0551   9.0561   9.0863   9.0871   9.0874   9.0877
     9.1092   9.1098   9.2021   9.2025   9.2043   9.2044   9.2432   9.2438
     9.2444   9.2446   9.2580   9.2583   9.2590   9.2593   9.2597   9.2601
     9.2606   9.2615   9.2934   9.2936   9.3769   9.3771   9.4448   9.4450
     9.4458   9.4461   9.5158   9.5164   9.5168   9.5174   9.5177   9.5182
     9.5189   9.5197   9.5773   9.5775   9.5783   9.5788   9.5863   9.5870
     9.5872   9.5878   9.5882   9.5886   9.5895   9.5901   9.9731   9.9743
     9.9752   9.9768  10.1628  10.1640  10.1649  10.1667

          k = 0.0000-0.3248 0.0000 ( 83134 PWs)   bands (ev):

   -14.2827 -14.2818 -14.2487 -14.2481 -14.2477 -14.2470 -14.2267 -14.2265
   -14.2261 -14.2260 -14.2259 -14.2257 -14.2256 -14.2255 -14.2246 -14.2246
   -14.2241 -14.2232 -14.2136 -14.2132 -14.2117 -14.2109 -14.2035 -14.2030
   -14.2012 -14.2012 -14.2007 -14.2006 -14.1983 -14.1982 -14.1979 -14.1979
   -14.1967 -14.1965 -14.1965 -14.1965 -14.1959 -14.1956 -14.1955 -14.1955
   -14.1949 -14.1948 -14.1943 -14.1933 -14.1903 -14.1903 -14.1895 -14.1882
   -14.1708 -14.1703 -14.1699 -14.1690 -14.1315 -14.1306 -14.0852 -14.0851
   -14.0846 -14.0844 -14.0570 -14.0567 -14.0561 -14.0561 -14.0559 -14.0559
   -14.0553 -14.0549 -14.0482 -14.0480 -14.0477 -14.0475 -14.0464 -14.0464
   -14.0460 -14.0454 -14.0111 -14.0108 -14.0107 -14.0106 -13.9968 -13.9967
   -13.9958 -13.9957 -13.9956 -13.9956 -13.9951 -13.9948 -13.9914 -13.9902
   -13.9899 -13.9891 -13.9886 -13.9885 -13.9881 -13.9879 -13.9875 -13.9873
   -13.9870 -13.9865 -13.9864 -13.9862 -13.9859 -13.9855 -13.9853 -13.9851
   -13.9846 -13.9841 -13.9831 -13.9828 -13.9824 -13.9821 -13.9813 -13.9810
   -13.9794 -13.9774 -13.9724 -13.9719 -13.9708 -13.9698 -13.9680 -13.9672
   -13.9577 -13.9572 -13.9568 -13.9557 -13.9417 -13.9402 -13.9391 -13.9388
   -13.9388 -13.9382 -13.9382 -13.9379 -13.9372 -13.9372 -13.9370 -13.9369
   -13.9367 -13.9364 -13.9363 -13.9362 -13.9358 -13.9358 -13.9355 -13.9354
   -13.9352 -13.9351 -13.9348 -13.9348 -13.9347 -13.9347 -13.9345 -13.9343
   -13.9340 -13.9339 -13.9338 -13.9331 -13.9329 -13.9328 -13.9325 -13.9322
   -13.9313 -13.9297 -13.9223 -13.9222 -13.9216 -13.9213 -13.9208 -13.9208
   -13.9202 -13.9201 -13.9200 -13.9199 -13.9199 -13.9197 -13.9194 -13.9193
   -13.9188 -13.9188 -13.9186 -13.9185 -13.9177 -13.9173 -13.9158 -13.9153
   -13.9152 -13.9151 -13.9150 -13.9147 -13.9144 -13.9144 -13.9135 -13.9135
   -13.9128 -13.9127 -13.9124 -13.9124 -13.9121 -13.9120 -13.9106 -13.9076
   -13.9073 -13.9065 -13.9061 -13.9053 -13.9025 -13.9015 -13.9011 -13.9009
   -13.9007 -13.9006 -13.8998 -13.8997 -13.8986 -13.8985 -13.8965 -13.8960
   -13.8952 -13.8949 -13.8947 -13.8944 -13.8942 -13.8939 -13.8933 -13.8933
   -13.8932 -13.8931 -13.8930 -13.8928 -13.8928 -13.8928 -13.8925 -13.8920
   -13.8919 -13.8918 -13.8917 -13.8916 -13.8915 -13.8911 -13.8909 -13.8900
   -13.8896 -13.8892 -13.8892 -13.8892 -13.8884 -13.8883 -13.8883 -13.8879
   -13.8873 -13.8871 -13.8870 -13.8870 -13.8868 -13.8868 -13.8867 -13.8866
   -13.8864 -13.8862 -13.8862 -13.8859 -13.8859 -13.8855 -13.8852 -13.8848
   -13.8848 -13.8838 -13.8837 -13.8836 -13.8823 -13.8779 -10.1386 -10.1378
    -9.6715  -9.6711  -9.6707  -9.6703  -9.2364  -9.2359  -9.0908  -9.0906
    -9.0899  -9.0898  -8.8658  -8.8648  -8.8641  -8.8637  -8.7266  -8.7263
    -8.7261  -8.7260  -8.7259  -8.7255  -8.7247  -8.7246  -8.4841  -8.4832
    -8.4831  -8.4818  -8.3887  -8.3885  -8.3884  -8.3878  -8.1804  -8.1802
    -8.1797  -8.1792  -8.1785  -8.1785  -8.1776  -8.1772  -7.8799  -7.8798
    -7.8796  -7.8794  -7.8792  -7.8792  -7.8783  -7.8772  -7.8408  -7.8396
    -7.4108  -7.4108  -7.4104  -7.4097  -7.3734  -7.3729  -7.3721  -7.3710
    -7.3437  -7.3428  -7.3167  -7.3161  -7.3158  -7.3151  -6.8051  -6.8046
    -6.7411  -6.7405  -6.7400  -6.7397  -6.7388  -6.7386  -6.7380  -6.7376
    -6.6857  -6.6846  -6.6842  -6.6841  -6.6837  -6.6837  -6.6836  -6.6831
    -6.6730  -6.6721  -6.6716  -6.6710  -6.6470  -6.6465  -6.6459  -6.6455
    -6.5900  -6.5887  -6.5819  -6.5816  -6.5812  -6.5811  -6.5091  -6.5086
    -6.5085  -6.5085  -6.5016  -6.5014  -6.5007  -6.5006  -6.5005  -6.5003
    -6.4999  -6.4992   0.6591   0.6607   0.7083   0.7093   0.7097   0.7103
     1.2556   1.2568   1.2571   1.2572   1.2572   1.2578   1.2581   1.2584
     1.4050   1.4061   1.4062   1.4067   1.4076   1.4080   1.4083   1.4087
     1.5528   1.5543   1.5547   1.5554   2.1267   2.1272   2.1273   2.1283
     2.2549   2.2559   2.4270   2.4279   2.4280   2.4282   2.4282   2.4284
     2.4290   2.4297   3.0940   3.0948   3.0962   3.0970   3.2188   3.2191
     3.2194   3.2203   3.5674   3.5680   3.5686   3.5690   3.6748   3.6749
     3.6752   3.6754   3.9023   3.9023   3.9026   3.9029   3.9030   3.9036
     3.9037   3.9040   4.4045   4.4048   4.4052   4.4052   4.5706   4.5708
     4.8114   4.8116   4.8120   4.8121   4.8136   4.8137   4.8140   4.8141
     4.8615   4.8619   4.8621   4.8622   4.8623   4.8624   4.8626   4.8633
     5.2088   5.2088   5.2091   5.2091   5.2544   5.2544   5.2544   5.2546
     5.2550   5.2550   5.2554   5.2555   5.3811   5.3821   5.6207   5.6213
     5.6216   5.6216   5.6219   5.6223   5.6224   5.6224   5.6232   5.6234
     5.6235   5.6254   5.6409   5.6413   5.6413   5.6419   5.6422   5.6423
     5.6427   5.6435   5.6525   5.6529   5.6533   5.6535   5.7874   5.7877
     5.7882   5.7883   5.7884   5.7886   5.7888   5.7893   5.8577   5.8586
     5.9300   5.9305   5.9318   5.9328   6.2532   6.2535   6.2539   6.2549
     6.4394   6.4400   6.6489   6.6497   6.7089   6.7097   6.7861   6.7871
     6.7884   6.7888   6.9270   6.9283   6.9284   6.9286   7.1861   7.1866
     7.1868   7.1884   7.1919   7.1920   7.1924   7.1931   7.3352   7.3356
     7.3357   7.3358   7.3565   7.3580   7.3586   7.3587   7.3588   7.3588
     7.3595   7.3600   7.4247   7.4252   7.4256   7.4261   7.5546   7.5554
     7.5634   7.5639   7.5639   7.5642   7.6923   7.6938   7.6938   7.6940
     7.6941   7.6943   7.6944   7.6951   7.7607   7.7608   7.7611   7.7616
     8.0688   8.0691   8.0705   8.0706   8.1296   8.1296   8.1300   8.1304
     8.2146   8.2151   8.2152   8.2153   8.2154   8.2155   8.2159   8.2165
     8.2220   8.2225   8.2229   8.2230   8.4165   8.4170   8.4173   8.4175
     8.4178   8.4181   8.4184   8.4184   8.4962   8.4967   8.4978   8.4989
     8.5242   8.5243   8.5249   8.5255   8.5452   8.5462   8.6491   8.6494
     8.6903   8.6910   8.7132   8.7140   8.7148   8.7150   8.7354   8.7357
     8.7357   8.7359   8.9732   8.9738   8.9739   8.9740   8.9743   8.9743
     8.9748   8.9752   8.9829   8.9831   8.9834   8.9836   8.9836   8.9839
     8.9846   8.9850   9.0335   9.0346   9.0831   9.0831   9.0838   9.0840
     9.1724   9.1725   9.1729   9.1733   9.1880   9.1883   9.1883   9.1886
     9.1888   9.1888   9.1894   9.1894   9.2743   9.2747   9.2758   9.2768
     9.3402   9.3404   9.3408   9.3408   9.4215   9.4218   9.4221   9.4223
     9.4226   9.4228   9.4231   9.4233   9.5124   9.5126   9.5132   9.5133
     9.5198   9.5204   9.5209   9.5217   9.5677   9.5680   9.5684   9.5685
     9.5687   9.5687   9.5697   9.5699   9.6940   9.6945   9.7011   9.7019
     9.8158   9.8167   9.8170   9.8185  10.3164  10.3176

          k =-0.3333-0.3248 0.0000 ( 83068 PWs)   bands (ev):

   -14.2751 -14.2750 -14.2734 -14.2731 -14.2725 -14.2715 -14.2590 -14.2581
   -14.2509 -14.2507 -14.2491 -14.2487 -14.2471 -14.2468 -14.2461 -14.2456
   -14.2447 -14.2433 -14.2414 -14.2399 -14.2230 -14.2224 -14.2220 -14.2213
   -14.1967 -14.1958 -14.1878 -14.1872 -14.1861 -14.1852 -14.1832 -14.1826
   -14.1811 -14.1804 -14.1799 -14.1797 -14.1654 -14.1654 -14.1453 -14.1448
   -14.1444 -14.1437 -14.1418 -14.1416 -14.1409 -14.1405 -14.1302 -14.1297
   -14.1292 -14.1290 -14.1111 -14.1104 -14.1055 -14.1047 -14.0877 -14.0869
   -14.0787 -14.0781 -14.0778 -14.0774 -14.0767 -14.0766 -14.0761 -14.0750
   -14.0479 -14.0478 -14.0363 -14.0355 -14.0354 -14.0347 -14.0330 -14.0322
   -14.0288 -14.0282 -14.0224 -14.0222 -14.0218 -14.0210 -14.0208 -14.0204
   -14.0203 -14.0199 -14.0199 -14.0194 -14.0193 -14.0188 -14.0186 -14.0185
   -14.0184 -14.0184 -14.0179 -14.0177 -14.0174 -14.0172 -14.0172 -14.0168
   -14.0164 -14.0163 -14.0156 -14.0123 -13.9991 -13.9982 -13.9855 -13.9851
   -13.9825 -13.9818 -13.9811 -13.9810 -13.9778 -13.9768 -13.9712 -13.9706
   -13.9702 -13.9694 -13.9653 -13.9648 -13.9637 -13.9627 -13.9601 -13.9594
   -13.9568 -13.9556 -13.9525 -13.9518 -13.9514 -13.9506 -13.9500 -13.9495
   -13.9488 -13.9488 -13.9484 -13.9483 -13.9482 -13.9478 -13.9476 -13.9467
   -13.9467 -13.9456 -13.9455 -13.9448 -13.9441 -13.9440 -13.9436 -13.9433
   -13.9431 -13.9431 -13.9425 -13.9424 -13.9422 -13.9415 -13.9412 -13.9395
   -13.9394 -13.9372 -13.9369 -13.9364 -13.9360 -13.9353 -13.9330 -13.9321
   -13.9319 -13.9305 -13.9201 -13.9189 -13.9187 -13.9176 -13.9173 -13.9166
   -13.9165 -13.9159 -13.9159 -13.9157 -13.9152 -13.9151 -13.9141 -13.9140
   -13.9135 -13.9130 -13.9122 -13.9120 -13.9110 -13.9092 -13.9080 -13.9073
   -13.9069 -13.9068 -13.9063 -13.9060 -13.9051 -13.9048 -13.9035 -13.9029
   -13.9024 -13.9023 -13.9017 -13.9016 -13.9008 -13.9006 -13.9003 -13.8997
   -13.8994 -13.8993 -13.8990 -13.8986 -13.8980 -13.8971 -13.8969 -13.8962
   -13.8957 -13.8957 -13.8955 -13.8952 -13.8951 -13.8948 -13.8946 -13.8945
   -13.8943 -13.8940 -13.8935 -13.8934 -13.8933 -13.8929 -13.8926 -13.8920
   -13.8919 -13.8916 -13.8914 -13.8912 -13.8912 -13.8906 -13.8904 -13.8901
   -13.8899 -13.8899 -13.8896 -13.8894 -13.8893 -13.8891 -13.8890 -13.8890
   -13.8888 -13.8888 -13.8886 -13.8884 -13.8883 -13.8881 -13.8879 -13.8879
   -13.8877 -13.8876 -13.8875 -13.8874 -13.8871 -13.8871 -13.8866 -13.8864
   -13.8862 -13.8861 -13.8860 -13.8856 -13.8855 -13.8851 -13.8850 -13.8848
   -13.8845 -13.8842 -13.8838 -13.8830 -13.8824 -13.8776 -10.0165 -10.0157
    -9.6567  -9.6559  -9.5552  -9.5548  -9.5544  -9.5540  -9.2218  -9.2215
    -9.2210  -9.2206  -9.1244  -9.1238  -8.8131  -8.8127  -8.7721  -8.7711
    -8.7704  -8.7700  -8.5160  -8.5150  -8.5141  -8.5138  -8.4015  -8.4007
    -8.3889  -8.3881  -8.3879  -8.3866  -8.1921  -8.1919  -8.1915  -8.1907
    -8.1430  -8.1423  -8.1422  -8.1409  -8.0367  -8.0363  -7.9235  -7.9227
    -7.9212  -7.9210  -7.8463  -7.8460  -7.8457  -7.8446  -7.7554  -7.7545
    -7.7436  -7.7425  -7.5155  -7.5146  -7.2770  -7.2766  -7.2757  -7.2746
    -7.2380  -7.2371  -7.2194  -7.2187  -7.2184  -7.2178  -7.0280  -7.0277
    -7.0266  -7.0256  -6.9696  -6.9691  -6.9684  -6.9683  -6.9649  -6.9640
    -6.7467  -6.7463  -6.6321  -6.6312  -6.6306  -6.6302  -6.6118  -6.6115
    -6.5923  -6.5915  -6.5850  -6.5837  -6.5558  -6.5555  -6.5540  -6.5531
    -6.5476  -6.5468  -6.5462  -6.5460  -6.5138  -6.5127  -6.5123  -6.5118
    -6.5061  -6.5056  -6.4964  -6.4957  -6.4954  -6.4943  -6.4609  -6.4600
    -6.4447  -6.4437   0.6505   0.6518   0.6600   0.6614   0.8175   0.8183
     0.8197   0.8200   1.0506   1.0512   1.0516   1.0518   1.0735   1.0744
     1.5123   1.5134   1.5138   1.5144   1.5678   1.5691   1.5696   1.5703
     1.7336   1.7342   1.7794   1.7800   1.7803   1.7808   1.9170   1.9179
     2.2753   2.2760   2.2775   2.2782   2.3157   2.3166   2.3950   2.3956
     2.9128   2.9135   2.9150   2.9158   3.1325   3.1329   3.1334   3.1337
     3.4983   3.4987   3.4994   3.4996   3.6175   3.6176   3.8326   3.8331
     3.8334   3.8340   4.1895   4.1898   4.1915   4.1918   4.2262   4.2270
     4.4533   4.4536   4.4543   4.4545   4.5343   4.5346   4.5879   4.5885
     4.5998   4.6002   4.6008   4.6014   4.6766   4.6767   4.6775   4.6778
     4.6791   4.6793   4.7880   4.7888   4.8178   4.8179   4.9789   4.9793
     4.9795   4.9800   5.0298   5.0300   5.0817   5.0824   5.1146   5.1153
     5.1328   5.1334   5.2434   5.2437   5.2778   5.2780   5.2786   5.2788
     5.3331   5.3337   5.3342   5.3349   5.4313   5.4322   5.6271   5.6278
     5.6284   5.6294   5.6941   5.6945   5.6945   5.6951   5.7847   5.7850
     5.7853   5.7860   5.9540   5.9544   5.9547   5.9556   5.9976   5.9983
     6.0695   6.0703   6.0709   6.0715   6.2142   6.2144   6.2146   6.2151
     6.3704   6.3710   6.4688   6.4691   6.4696   6.4699   6.5050   6.5054
     6.5380   6.5385   6.5446   6.5450   6.5451   6.5454   6.5560   6.5569
     6.5710   6.5715   6.7672   6.7673   6.8804   6.8808   6.8812   6.8819
     7.1037   7.1043   7.1043   7.1051   7.1303   7.1311   7.1313   7.1317
     7.2722   7.2725   7.3087   7.3091   7.3997   7.4000   7.4089   7.4100
     7.4101   7.4104   7.4128   7.4136   7.4421   7.4424   7.4432   7.4442
     7.5282   7.5294   7.5303   7.5304   7.5478   7.5480   7.6609   7.6616
     7.7517   7.7521   7.7525   7.7527   7.8342   7.8348   7.8889   7.8894
     7.8900   7.8902   7.9021   7.9026   8.0053   8.0056   8.0056   8.0064
     8.0271   8.0280   8.0610   8.0611   8.1324   8.1331   8.1499   8.1502
     8.1505   8.1509   8.2197   8.2200   8.2203   8.2204   8.2796   8.2799
     8.3481   8.3485   8.3794   8.3796   8.3802   8.3809   8.4465   8.4470
     8.4473   8.4479   8.4645   8.4648   8.5508   8.5511   8.5513   8.5517
     8.7069   8.7071   8.7074   8.7079   8.7110   8.7116   8.7118   8.7125
     8.7502   8.7503   8.7525   8.7534   8.8681   8.8683   8.8689   8.8692
     8.8693   8.8699   8.8701   8.8707   8.9267   8.9269   8.9275   8.9277
     8.9422   8.9424   9.0112   9.0120   9.0127   9.0135   9.0426   9.0429
     9.0522   9.0528   9.0533   9.0538   9.2343   9.2345   9.2398   9.2401
     9.2403   9.2413   9.3162   9.3170   9.3445   9.3449   9.3459   9.3465
     9.3770   9.3784   9.3787   9.3795   9.3801   9.3816   9.3971   9.3973
     9.3978   9.3986   9.4539   9.4547   9.4776   9.4779   9.4858   9.4860
     9.4865   9.4872   9.4995   9.5002   9.5007   9.5014   9.6316   9.6320
     9.6575   9.6584   9.8247   9.8255   9.8258   9.8268   9.8804   9.8813
     9.8816   9.8828   9.9964   9.9973  10.2550  10.2561

     highest occupied level (ev):    10.4933

!    total energy              =  -13225.90717938 Ry
     estimated scf accuracy    <          5.0E-09 Ry

     The total energy is the sum of the following terms:
     one-electron contribution =   -4400.23365000 Ry
     hartree contribution      =    3316.22664050 Ry
     xc contribution           =   -3278.83619764 Ry
     ewald contribution        =   -8863.06397224 Ry

     convergence has been achieved in  14 iterations

     Forces acting on atoms (cartesian axes, Ry/au):

     atom    1 type  1   force =     0.00004017   -0.00051600    0.00096222
     atom    2 type  1   force =    -0.00026343    0.00004087    0.00017688
     atom    3 type  1   force =     0.00034286    0.00004049    0.00017654
     atom    4 type  1   force =     0.00004037   -0.00014812    0.00014820
     atom    5 type  1   force =     0.00004776   -0.00003655    0.00008428
     atom    6 type  1   force =     0.00003267   -0.00003620    0.00008503
     atom    7 type  1   force =     0.00003920    0.00010012    0.00002088
     atom    8 type  1   force =     0.00004133    0.00009250    0.00001785
     atom    9 type  1   force =     0.00003905    0.00009297    0.00001849
     atom   10 type  1   force =     0.00004076    0.00003384   -0.00014060
     atom   11 type  1   force =     0.00003569    0.00002310   -0.00011760
     atom   12 type  1   force =     0.00004445    0.00002417   -0.00011723
     atom   13 type  1   force =     0.00004009    0.00000763   -0.00007846
     atom   14 type  1   force =     0.00003769    0.00000992   -0.00006711
     atom   15 type  1   force =     0.00004433    0.00000984   -0.00006773
     atom   16 type  1   force =     0.00004039    0.00006783   -0.00004526
     atom   17 type  1   force =     0.00004076    0.00006433   -0.00004041
     atom   18 type  1   force =     0.00003997    0.00006372   -0.00004147
     atom   19 type  1   force =     0.00003998   -0.00028422   -0.00016746
     atom   20 type  1   force =     0.00028320   -0.00020458   -0.00002442
     atom   21 type  1   force =    -0.00020351   -0.00020430   -0.00002430
     atom   22 type  1   force =     0.00004004    0.00047956   -0.00041251
     atom   23 type  1   force =     0.00013117    0.00006361    0.00001505
     atom   24 type  1   force =    -0.00005016    0.00006339    0.00001496
     atom   25 type  1   force =     0.00003991    0.00005348    0.00005418
     atom   26 type  1   force =     0.00004301    0.00005762    0.00005057
     atom   27 type  1   force =     0.00003715    0.00005764    0.00005095
     atom   28 type  1   force =    -0.00008656    0.00010248    0.00028450
     atom   29 type  1   force =    -0.00002561    0.00010280    0.00028432
     atom   30 type  1   force =    -0.00005626    0.00001978    0.00014435
     atom   31 type  1   force =     0.00033052   -0.00076074    0.00132161
     atom   32 type  1   force =    -0.00044243   -0.00075999    0.00132128
     atom   33 type  1   force =    -0.00005662   -0.00007860    0.00019295
     atom   34 type  1   force =    -0.00006672    0.00012830    0.00012778
     atom   35 type  1   force =    -0.00004570    0.00012802    0.00012826
     atom   36 type  1   force =    -0.00005728    0.00008033    0.00009040
     atom   37 type  1   force =    -0.00003535    0.00010148   -0.00010314
     atom   38 type  1   force =    -0.00007794    0.00010259   -0.00010260
     atom   39 type  1   force =    -0.00005632    0.00007203   -0.00008572
     atom   40 type  1   force =    -0.00001729   -0.00027319   -0.00028182
     atom   41 type  1   force =    -0.00009682   -0.00027364   -0.00028268
     atom   42 type  1   force =    -0.00005674   -0.00008977   -0.00006339
     atom   43 type  1   force =    -0.00005873    0.00004024   -0.00002437
     atom   44 type  1   force =    -0.00005590    0.00004050   -0.00002473
     atom   45 type  1   force =    -0.00005646    0.00003940   -0.00003034
     atom   46 type  1   force =    -0.00006961   -0.00004055   -0.00005550
     atom   47 type  1   force =    -0.00004305   -0.00004042   -0.00005570
     atom   48 type  1   force =    -0.00005710   -0.00000220   -0.00001466
     atom   49 type  1   force =    -0.00007058   -0.00004974   -0.00013360
     atom   50 type  1   force =    -0.00004358   -0.00004998   -0.00013313
     atom   51 type  1   force =    -0.00005697   -0.00001546   -0.00006964
     atom   52 type  1   force =    -0.00006477    0.00005951   -0.00002672
     atom   53 type  1   force =    -0.00004913    0.00005988   -0.00002678
     atom   54 type  1   force =    -0.00005715    0.00005415   -0.00001944
     atom   55 type  2   force =    -0.00056177   -0.00109019   -0.00043306
     atom   56 type  2   force =     0.00055066   -0.00109018   -0.00043309
     atom   57 type  2   force =    -0.00000550   -0.00098208   -0.00101568
     atom   58 type  2   force =    -0.00001443   -0.00090395   -0.00099385
     atom   59 type  2   force =    -0.00000238   -0.00090383   -0.00099379
     atom   60 type  2   force =    -0.00000847   -0.00089235   -0.00098019
     atom   61 type  2   force =    -0.00001023   -0.00068907   -0.00097541
     atom   62 type  2   force =    -0.00000212   -0.00068910   -0.00097546
     atom   63 type  2   force =    -0.00000625   -0.00068431   -0.00097726
     atom   64 type  2   force =    -0.00000775   -0.00093211   -0.00082999
     atom   65 type  2   force =    -0.00000906   -0.00093199   -0.00082993
     atom   66 type  2   force =    -0.00000847   -0.00093121   -0.00082933
     atom   67 type  2   force =    -0.00000895   -0.00088466   -0.00085943
     atom   68 type  2   force =    -0.00001328   -0.00088471   -0.00085954
     atom   69 type  2   force =    -0.00001117   -0.00088586   -0.00086678
     atom   70 type  2   force =    -0.00000795   -0.00064195   -0.00087938
     atom   71 type  2   force =    -0.00001018   -0.00064207   -0.00087942
     atom   72 type  2   force =    -0.00000893   -0.00064263   -0.00088036
     atom   73 type  2   force =     0.00053391   -0.00065487   -0.00009943
     atom   74 type  2   force =    -0.00054635   -0.00065482   -0.00009937
     atom   75 type  2   force =    -0.00000621   -0.00094122   -0.00067810
     atom   76 type  2   force =     0.00009082   -0.00102827   -0.00067501
     atom   77 type  2   force =    -0.00010893   -0.00102835   -0.00067510
     atom   78 type  2   force =    -0.00000897   -0.00093053   -0.00066155
     atom   79 type  2   force =    -0.00000142   -0.00063853   -0.00065217
     atom   80 type  2   force =    -0.00001261   -0.00063855   -0.00065214
     atom   81 type  2   force =    -0.00000694   -0.00064245   -0.00065440
     atom   82 type  2   force =     0.00001493    0.00440138   -0.00700421
     atom   83 type  2   force =     0.00009724    0.00081307   -0.00098618
     atom   84 type  2   force =    -0.00006586    0.00081306   -0.00098614
     atom   85 type  2   force =     0.00001528    0.00098633   -0.00088168
     atom   86 type  2   force =     0.00001049    0.00100251   -0.00087625
     atom   87 type  2   force =     0.00002000    0.00100249   -0.00087623
     atom   88 type  2   force =     0.00001297    0.00076301   -0.00086456
     atom   89 type  2   force =     0.00004414    0.00075324   -0.00085885
     atom   90 type  2   force =    -0.00001834    0.00075328   -0.00085896
     atom   91 type  2   force =     0.00001755    0.00070551   -0.00092149
     atom   92 type  2   force =     0.00007118    0.00072241   -0.00093750
     atom   93 type  2   force =    -0.00003605    0.00072233   -0.00093755
     atom   94 type  2   force =     0.00001751    0.00099308   -0.00103808
     atom   95 type  2   force =     0.00001595    0.00099063   -0.00103511
     atom   96 type  2   force =     0.00001869    0.00099058   -0.00103504
     atom   97 type  2   force =     0.00001504    0.00075753   -0.00100137
     atom   98 type  2   force =     0.00001514    0.00076867   -0.00100863
     atom   99 type  2   force =     0.00001490    0.00076866   -0.00100868
     atom  100 type  2   force =     0.00001824    0.00068318   -0.00066859
     atom  101 type  2   force =    -0.00003228    0.00067384   -0.00067998
     atom  102 type  2   force =     0.00006884    0.00067375   -0.00067991
     atom  103 type  2   force =     0.00001793    0.00092624   -0.00072985
     atom  104 type  2   force =     0.00000439    0.00093725   -0.00073684
     atom  105 type  2   force =     0.00003139    0.00093732   -0.00073685
     atom  106 type  2   force =     0.00001570    0.00079925   -0.00076799
     atom  107 type  2   force =     0.00000745    0.00078741   -0.00076485
     atom  108 type  2   force =     0.00002411    0.00078747   -0.00076493
     atom  109 type  2   force =    -0.00022694    0.00035645    0.00050325
     atom  110 type  2   force =     0.00021356    0.00035639    0.00050321
     atom  111 type  2   force =    -0.00000675    0.00064538    0.00060613
     atom  112 type  2   force =    -0.00005670    0.00101282    0.00052047
     atom  113 type  2   force =     0.00003870    0.00101285    0.00052047
     atom  114 type  2   force =    -0.00000895    0.00090692    0.00062359
     atom  115 type  2   force =    -0.00000384    0.00096054    0.00064393
     atom  116 type  2   force =    -0.00000869    0.00096062    0.00064402
     atom  117 type  2   force =    -0.00000627    0.00095965    0.00064537
     atom  118 type  2   force =    -0.00001450    0.00068235    0.00096623
     atom  119 type  2   force =    -0.00000356    0.00068237    0.00096620
     atom  120 type  2   force =    -0.00000891    0.00068633    0.00095551
     atom  121 type  2   force =    -0.00001983    0.00094109    0.00095888
     atom  122 type  2   force =    -0.00000268    0.00094118    0.00095895
     atom  123 type  2   force =    -0.00001136    0.00093617    0.00094656
     atom  124 type  2   force =    -0.00000801    0.00099578    0.00092004
     atom  125 type  2   force =    -0.00000931    0.00099572    0.00091989
     atom  126 type  2   force =    -0.00000878    0.00099673    0.00092106
     atom  127 type  2   force =    -0.00000657    0.00079823    0.00109370
     atom  128 type  2   force =    -0.00000602    0.00079822    0.00109376
     atom  129 type  2   force =    -0.00000618    0.00069995    0.00100015
     atom  130 type  2   force =     0.00008413    0.00090163    0.00110011
     atom  131 type  2   force =    -0.00010154    0.00090162    0.00110009
     atom  132 type  2   force =    -0.00000873    0.00089106    0.00100795
     atom  133 type  2   force =    -0.00000213    0.00100758    0.00101755
     atom  134 type  2   force =    -0.00000985    0.00100758    0.00101756
     atom  135 type  2   force =    -0.00000589    0.00100862    0.00101385
     atom  136 type  2   force =     0.00001557   -0.00094879    0.00082641
     atom  137 type  2   force =     0.00006103   -0.00089632    0.00077394
     atom  138 type  2   force =    -0.00002969   -0.00089625    0.00077392
     atom  139 type  2   force =     0.00001758   -0.00088703    0.00079580
     atom  140 type  2   force =     0.00005031   -0.00095651    0.00069626
     atom  141 type  2   force =    -0.00001521   -0.00095656    0.00069621
     atom  142 type  2   force =     0.00001833   -0.00078553    0.00070833
     atom  143 type  2   force =     0.00001717   -0.00078252    0.00071031
     atom  144 type  2   force =     0.00001934   -0.00078250    0.00071028
     atom  145 type  2   force =     0.00001519   -0.00084864    0.00104581
     atom  146 type  2   force =     0.00000688   -0.00084588    0.00103301
     atom  147 type  2   force =     0.00002371   -0.00084592    0.00103303
     atom  148 type  2   force =     0.00001745   -0.00107028    0.00105779
     atom  149 type  2   force =     0.00000729   -0.00106625    0.00105610
     atom  150 type  2   force =     0.00002737   -0.00106627    0.00105615
     atom  151 type  2   force =     0.00001791   -0.00079879    0.00100061
     atom  152 type  2   force =     0.00001804   -0.00079610    0.00099900
     atom  153 type  2   force =     0.00001779   -0.00079607    0.00099903
     atom  154 type  2   force =     0.00001285   -0.00067679    0.00068555
     atom  155 type  2   force =     0.00000347   -0.00074556    0.00068530
     atom  156 type  2   force =     0.00002241   -0.00074553    0.00068530
     atom  157 type  2   force =     0.00001509   -0.00255400    0.00211408
     atom  158 type  2   force =    -0.00007550   -0.00103497    0.00074834
     atom  159 type  2   force =     0.00010553   -0.00103496    0.00074835
     atom  160 type  2   force =     0.00001580   -0.00080033    0.00076479
     atom  161 type  2   force =     0.00000386   -0.00079648    0.00076014
     atom  162 type  2   force =     0.00002764   -0.00079654    0.00076020

     Total force =     0.015622     Total SCF correction =     0.000081
 
     init_run     :     23.53s CPU     31.98s WALL (       1 calls)
     electrons    :   1010.30s CPU   1352.41s WALL (       1 calls)
     forces       :     19.97s CPU     32.38s WALL (       1 calls)

     Called by init_run:
     wfcinit      :     23.12s CPU     31.48s WALL (       1 calls)
     potinit      :      0.08s CPU      0.10s WALL (       1 calls)
     hinit0       :      0.14s CPU      0.19s WALL (       1 calls)

     Called by electrons:
     c_bands      :    966.28s CPU   1303.03s WALL (      14 calls)
     sum_band     :     43.47s CPU     48.34s WALL (      14 calls)
     v_of_rho     :      0.43s CPU      0.73s WALL (      15 calls)
     mix_rho      :      0.12s CPU      0.32s WALL (      14 calls)

     Called by c_bands:
     init_us_2    :      8.16s CPU      8.28s WALL (     240 calls)
     cegterg      :    937.46s CPU   1273.25s WALL (     112 calls)

     Called by *egterg:
     cdiaghg      :     66.96s CPU    123.11s WALL (     526 calls)
     h_psi        :    477.89s CPU    526.30s WALL (     534 calls)
     g_psi        :      1.73s CPU      1.77s WALL (     414 calls)

     Called by h_psi:
     h_psi:calbec :    151.18s CPU    164.78s WALL (     534 calls)
     vloc_psi     :    201.49s CPU    233.03s WALL (     534 calls)
     add_vuspsi   :    121.72s CPU    124.53s WALL (     534 calls)

     General routines
     calbec       :    167.09s CPU    192.93s WALL (     566 calls)
     fft          :      0.31s CPU      0.64s WALL (     160 calls)
     ffts         :      0.01s CPU      0.01s WALL (      14 calls)
     fftw         :    223.22s CPU    257.42s WALL (  533012 calls)
 
     Parallel routines
 
     PWSCF        :  17m33.86s CPU  23m36.99s WALL

 
   This run was terminated on:  17:59:54  19May2025            

=------------------------------------------------------------------------------=
   JOB DONE.
=------------------------------------------------------------------------------=
