
     Program PWSCF v.6.8 starts on 19May2025 at 17:36:17 

     This program is part of the open-source Quantum ESPRESSO suite
     for quantum simulation of materials; please cite
         "P. Giannozzi et al., J. Phys.:Condens. Matter 21 395502 (2009);
         "P. Giannozzi et al., J. Phys.:Condens. Matter 29 465901 (2017);
         "P. Giannozzi et al., J. Chem. Phys. 152 154105 (2020);
          URL http://www.quantum-espresso.org", 
     in publications or presentations arising from this work. More details at
     http://www.quantum-espresso.org/quote

     Parallel version (MPI & OpenMP), running on      56 processor cores
     Number of MPI processes:                56
     Threads/MPI process:                     1

     MPI processes distributed on     1 nodes
     R & G space division:  proc/nbgrp/npool/nimage =      56
     186748 MiB available memory on the printing compute node when the environment starts
 
     Reading input from supercell-018.in

     Current dimensions of program PWSCF are:
     Max number of different atomic species (ntypx) = 10
     Max number of k-points (npk) =  40000
     Max angular momentum in pseudopotentials (lmaxx) =  4

     Subspace diagonalization in iterative solution of the eigenvalue problem:
     one sub-group per band group will be used
     scalapack distributed-memory algorithm (size of sub-group:  7*  7 procs)

 
     Parallelization info
     --------------------
     sticks:   dense  smooth     PW     G-vecs:    dense   smooth      PW
     Min         142     142     37                11872    11872    1609
     Max         143     143     38                11879    11879    1614
     Sum        7985    7985   2105               665041   665041   90217
 
     Using Slab Decomposition
 


     bravais-lattice index     =            0
     lattice parameter (alat)  =      16.4683  a.u.
     unit-cell volume          =   10586.5407 (a.u.)^3
     number of atoms/cell      =          162
     number of atomic types    =            2
     number of electrons       =      1404.00
     number of Kohn-Sham states=          702
     kinetic-energy cutoff     =      60.0000  Ry
     charge density cutoff     =     240.0000  Ry
     scf convergence threshold =      1.0E-08
     mixing beta               =       0.7000
     number of iterations used =            8  plain     mixing
     Exchange-correlation= PBE
                           (   1   4   3   4   0   0   0)

     celldm(1)=  16.468320  celldm(2)=   0.000000  celldm(3)=   0.000000
     celldm(4)=   0.000000  celldm(5)=   0.000000  celldm(6)=   0.000000

     crystal axes: (cart. coord. in units of alat)
               a(1) = (   1.000000   0.000000   0.000000 )  
               a(2) = (   0.000000   1.539583   0.000000 )  
               a(3) = (   0.000000   0.000000   1.539583 )  

     reciprocal axes: (cart. coord. in units 2 pi/alat)
               b(1) = (  1.000000  0.000000  0.000000 )  
               b(2) = (  0.000000  0.649527  0.000000 )  
               b(3) = (  0.000000  0.000000  0.649527 )  


     PseudoPot. # 1 for Ge read from file:
     ./Ge.upf
     MD5 check sum: 087fa14d6c89b52166990835c3b338da
     Pseudo is Norm-conserving + core correction, Zval = 14.0
     Generated using ONCVPSP code by D. R. Hamann
     Using radial grid of 1560 points,  6 beta functions with: 
                l(1) =   0
                l(2) =   0
                l(3) =   1
                l(4) =   1
                l(5) =   2
                l(6) =   2

     PseudoPot. # 2 for O  read from file:
     ./O.upf
     MD5 check sum: 9db02a5ece9d56b81b65a73f8163743d
     Pseudo is Norm-conserving + core correction, Zval =  6.0
     Generated using ONCVPSP code by D. R. Hamann
     Using radial grid of  936 points,  5 beta functions with: 
                l(1) =   0
                l(2) =   0
                l(3) =   1
                l(4) =   1
                l(5) =   2

     atomic species   valence    mass     pseudopotential
        Ge            14.00    72.64000     Ge( 1.00)
        O              6.00    15.99940     O ( 1.00)

     No symmetry found



   Cartesian axes

     site n.     atom                  positions (alat units)
         1           Ge  tau(   1) = (   0.1668459   0.2567076   0.2567076  )
         2           Ge  tau(   2) = (   0.5001793   0.2567076   0.2567076  )
         3           Ge  tau(   3) = (   0.8335126   0.2567076   0.2567076  )
         4           Ge  tau(   4) = (   0.1668459   0.7699019   0.2567076  )
         5           Ge  tau(   5) = (   0.5001793   0.7699019   0.2567076  )
         6           Ge  tau(   6) = (   0.8335126   0.7699019   0.2567076  )
         7           Ge  tau(   7) = (   0.1668459   1.2830962   0.2567076  )
         8           Ge  tau(   8) = (   0.5001793   1.2830962   0.2567076  )
         9           Ge  tau(   9) = (   0.8335126   1.2830962   0.2567076  )
        10           Ge  tau(  10) = (   0.1668459   0.2567076   0.7699019  )
        11           Ge  tau(  11) = (   0.5001793   0.2567076   0.7699019  )
        12           Ge  tau(  12) = (   0.8335126   0.2567076   0.7699019  )
        13           Ge  tau(  13) = (   0.1668459   0.7699019   0.7699019  )
        14           Ge  tau(  14) = (   0.5001793   0.7699019   0.7699019  )
        15           Ge  tau(  15) = (   0.8335126   0.7699019   0.7699019  )
        16           Ge  tau(  16) = (   0.1668459   1.2830962   0.7699019  )
        17           Ge  tau(  17) = (   0.5001793   1.2830962   0.7699019  )
        18           Ge  tau(  18) = (   0.8335126   1.2830962   0.7699019  )
        19           Ge  tau(  19) = (   0.1668459   0.2567076   1.2830962  )
        20           Ge  tau(  20) = (   0.5001793   0.2567076   1.2830962  )
        21           Ge  tau(  21) = (   0.8335126   0.2567076   1.2830962  )
        22           Ge  tau(  22) = (   0.1668459   0.7699019   1.2830962  )
        23           Ge  tau(  23) = (   0.5001793   0.7699019   1.2830962  )
        24           Ge  tau(  24) = (   0.8335126   0.7699019   1.2830962  )
        25           Ge  tau(  25) = (   0.1668459   1.2830962   1.2830962  )
        26           Ge  tau(  26) = (   0.5001793   1.2830962   1.2830962  )
        27           Ge  tau(  27) = (   0.8335126   1.2830962   1.2830962  )
        28           Ge  tau(  28) = (   0.0002011   0.0001111   0.0001111  )
        29           Ge  tau(  29) = (   0.3335344   0.0001111   0.0001111  )
        30           Ge  tau(  30) = (   0.6668677   0.0001111   0.0001111  )
        31           Ge  tau(  31) = (   0.0002011   0.5133054   0.0001111  )
        32           Ge  tau(  32) = (   0.3335344   0.5133054   0.0001111  )
        33           Ge  tau(  33) = (   0.6668677   0.5133054   0.0001111  )
        34           Ge  tau(  34) = (   0.0002011   1.0264997   0.0001111  )
        35           Ge  tau(  35) = (   0.3335344   1.0264997   0.0001111  )
        36           Ge  tau(  36) = (   0.6668677   1.0264997   0.0001111  )
        37           Ge  tau(  37) = (   0.0002011   0.0001111   0.5133054  )
        38           Ge  tau(  38) = (   0.3335344   0.0001111   0.5133054  )
        39           Ge  tau(  39) = (   0.6668677   0.0001111   0.5133054  )
        40           Ge  tau(  40) = (   0.0002011   0.5133054   0.5133054  )
        41           Ge  tau(  41) = (   0.3335344   0.5133054   0.5133054  )
        42           Ge  tau(  42) = (   0.6668677   0.5133054   0.5133054  )
        43           Ge  tau(  43) = (   0.0002011   1.0264997   0.5133054  )
        44           Ge  tau(  44) = (   0.3335344   1.0264997   0.5133054  )
        45           Ge  tau(  45) = (   0.6668677   1.0264997   0.5133054  )
        46           Ge  tau(  46) = (   0.0002011   0.0001111   1.0264997  )
        47           Ge  tau(  47) = (   0.3335344   0.0001111   1.0264997  )
        48           Ge  tau(  48) = (   0.6668677   0.0001111   1.0264997  )
        49           Ge  tau(  49) = (   0.0002011   0.5133054   1.0264997  )
        50           Ge  tau(  50) = (   0.3335344   0.5133054   1.0264997  )
        51           Ge  tau(  51) = (   0.6668677   0.5133054   1.0264997  )
        52           Ge  tau(  52) = (   0.0002011   1.0264997   1.0264997  )
        53           Ge  tau(  53) = (   0.3335344   1.0264997   1.0264997  )
        54           Ge  tau(  54) = (   0.6668677   1.0264997   1.0264997  )
        55           O   tau(  55) = (   0.0001875   0.3558055   0.3558055  )
        56           O   tau(  56) = (   0.3335209   0.3558055   0.3558055  )
        57           O   tau(  57) = (   0.6668542   0.3558055   0.3558055  )
        58           O   tau(  58) = (   0.0001875   0.8689998   0.3558055  )
        59           O   tau(  59) = (   0.3335209   0.8689998   0.3558055  )
        60           O   tau(  60) = (   0.6668542   0.8689998   0.3558055  )
        61           O   tau(  61) = (   0.0001875   1.3821941   0.3558055  )
        62           O   tau(  62) = (   0.3335209   1.3821941   0.3558055  )
        63           O   tau(  63) = (   0.6668542   1.3821941   0.3558055  )
        64           O   tau(  64) = (   0.0001875   0.3558055   0.8689998  )
        65           O   tau(  65) = (   0.3335209   0.3558055   0.8689998  )
        66           O   tau(  66) = (   0.6668542   0.3558055   0.8689998  )
        67           O   tau(  67) = (   0.0001875   0.8689998   0.8689998  )
        68           O   tau(  68) = (   0.3335209   0.8689998   0.8689998  )
        69           O   tau(  69) = (   0.6668542   0.8689998   0.8689998  )
        70           O   tau(  70) = (   0.0001875   1.3821941   0.8689998  )
        71           O   tau(  71) = (   0.3335209   1.3821941   0.8689998  )
        72           O   tau(  72) = (   0.6668542   1.3821941   0.8689998  )
        73           O   tau(  73) = (   0.0001875   0.3558055   1.3821941  )
        74           O   tau(  74) = (   0.3335209   0.3558055   1.3821941  )
        75           O   tau(  75) = (   0.6668542   0.3558055   1.3821941  )
        76           O   tau(  76) = (   0.0001875   0.8689998   1.3821941  )
        77           O   tau(  77) = (   0.3335209   0.8689998   1.3821941  )
        78           O   tau(  78) = (   0.6668542   0.8689998   1.3821941  )
        79           O   tau(  79) = (   0.0001875   1.3821941   1.3821941  )
        80           O   tau(  80) = (   0.3335209   1.3821941   1.3821941  )
        81           O   tau(  81) = (   0.6668542   1.3821941   1.3821941  )
        82           O   tau(  82) = (   0.1668565   0.4142272   0.0980077  )
        83           O   tau(  83) = (   0.5001898   0.4142272   0.0992221  )
        84           O   tau(  84) = (   0.8335231   0.4142272   0.0992221  )
        85           O   tau(  85) = (   0.1668565   0.9274215   0.0992221  )
        86           O   tau(  86) = (   0.5001898   0.9274215   0.0992221  )
        87           O   tau(  87) = (   0.8335231   0.9274215   0.0992221  )
        88           O   tau(  88) = (   0.1668565   1.4406159   0.0992221  )
        89           O   tau(  89) = (   0.5001898   1.4406159   0.0992221  )
        90           O   tau(  90) = (   0.8335231   1.4406159   0.0992221  )
        91           O   tau(  91) = (   0.1668565   0.4142272   0.6124165  )
        92           O   tau(  92) = (   0.5001898   0.4142272   0.6124165  )
        93           O   tau(  93) = (   0.8335231   0.4142272   0.6124165  )
        94           O   tau(  94) = (   0.1668565   0.9274215   0.6124165  )
        95           O   tau(  95) = (   0.5001898   0.9274215   0.6124165  )
        96           O   tau(  96) = (   0.8335231   0.9274215   0.6124165  )
        97           O   tau(  97) = (   0.1668565   1.4406159   0.6124165  )
        98           O   tau(  98) = (   0.5001898   1.4406159   0.6124165  )
        99           O   tau(  99) = (   0.8335231   1.4406159   0.6124165  )
       100           O   tau( 100) = (   0.1668565   0.4142272   1.1256108  )
       101           O   tau( 101) = (   0.5001898   0.4142272   1.1256108  )
       102           O   tau( 102) = (   0.8335231   0.4142272   1.1256108  )
       103           O   tau( 103) = (   0.1668565   0.9274215   1.1256108  )
       104           O   tau( 104) = (   0.5001898   0.9274215   1.1256108  )
       105           O   tau( 105) = (   0.8335231   0.9274215   1.1256108  )
       106           O   tau( 106) = (   0.1668565   1.4406159   1.1256108  )
       107           O   tau( 107) = (   0.5001898   1.4406159   1.1256108  )
       108           O   tau( 108) = (   0.8335231   1.4406159   1.1256108  )
       109           O   tau( 109) = (   0.0001875   0.1576176   0.1576176  )
       110           O   tau( 110) = (   0.3335209   0.1576176   0.1576176  )
       111           O   tau( 111) = (   0.6668542   0.1576176   0.1576176  )
       112           O   tau( 112) = (   0.0001875   0.6708120   0.1576176  )
       113           O   tau( 113) = (   0.3335209   0.6708120   0.1576176  )
       114           O   tau( 114) = (   0.6668542   0.6708120   0.1576176  )
       115           O   tau( 115) = (   0.0001875   1.1840063   0.1576176  )
       116           O   tau( 116) = (   0.3335209   1.1840063   0.1576176  )
       117           O   tau( 117) = (   0.6668542   1.1840063   0.1576176  )
       118           O   tau( 118) = (   0.0001875   0.1576176   0.6708120  )
       119           O   tau( 119) = (   0.3335209   0.1576176   0.6708120  )
       120           O   tau( 120) = (   0.6668542   0.1576176   0.6708120  )
       121           O   tau( 121) = (   0.0001875   0.6708120   0.6708120  )
       122           O   tau( 122) = (   0.3335209   0.6708120   0.6708120  )
       123           O   tau( 123) = (   0.6668542   0.6708120   0.6708120  )
       124           O   tau( 124) = (   0.0001875   1.1840063   0.6708120  )
       125           O   tau( 125) = (   0.3335209   1.1840063   0.6708120  )
       126           O   tau( 126) = (   0.6668542   1.1840063   0.6708120  )
       127           O   tau( 127) = (   0.0001875   0.1576176   1.1840063  )
       128           O   tau( 128) = (   0.3335209   0.1576176   1.1840063  )
       129           O   tau( 129) = (   0.6668542   0.1576176   1.1840063  )
       130           O   tau( 130) = (   0.0001875   0.6708120   1.1840063  )
       131           O   tau( 131) = (   0.3335209   0.6708120   1.1840063  )
       132           O   tau( 132) = (   0.6668542   0.6708120   1.1840063  )
       133           O   tau( 133) = (   0.0001875   1.1840063   1.1840063  )
       134           O   tau( 134) = (   0.3335209   1.1840063   1.1840063  )
       135           O   tau( 135) = (   0.6668542   1.1840063   1.1840063  )
       136           O   tau( 136) = (   0.1668565   0.0992221   0.4142272  )
       137           O   tau( 137) = (   0.5001898   0.0992221   0.4142272  )
       138           O   tau( 138) = (   0.8335231   0.0992221   0.4142272  )
       139           O   tau( 139) = (   0.1668565   0.6124165   0.4142272  )
       140           O   tau( 140) = (   0.5001898   0.6124165   0.4142272  )
       141           O   tau( 141) = (   0.8335231   0.6124165   0.4142272  )
       142           O   tau( 142) = (   0.1668565   1.1256108   0.4142272  )
       143           O   tau( 143) = (   0.5001898   1.1256108   0.4142272  )
       144           O   tau( 144) = (   0.8335231   1.1256108   0.4142272  )
       145           O   tau( 145) = (   0.1668565   0.0992221   0.9274215  )
       146           O   tau( 146) = (   0.5001898   0.0992221   0.9274215  )
       147           O   tau( 147) = (   0.8335231   0.0992221   0.9274215  )
       148           O   tau( 148) = (   0.1668565   0.6124165   0.9274215  )
       149           O   tau( 149) = (   0.5001898   0.6124165   0.9274215  )
       150           O   tau( 150) = (   0.8335231   0.6124165   0.9274215  )
       151           O   tau( 151) = (   0.1668565   1.1256108   0.9274215  )
       152           O   tau( 152) = (   0.5001898   1.1256108   0.9274215  )
       153           O   tau( 153) = (   0.8335231   1.1256108   0.9274215  )
       154           O   tau( 154) = (   0.1668565   0.0992221   1.4406159  )
       155           O   tau( 155) = (   0.5001898   0.0992221   1.4406159  )
       156           O   tau( 156) = (   0.8335231   0.0992221   1.4406159  )
       157           O   tau( 157) = (   0.1668565   0.6124165   1.4406159  )
       158           O   tau( 158) = (   0.5001898   0.6124165   1.4406159  )
       159           O   tau( 159) = (   0.8335231   0.6124165   1.4406159  )
       160           O   tau( 160) = (   0.1668565   1.1256108   1.4406159  )
       161           O   tau( 161) = (   0.5001898   1.1256108   1.4406159  )
       162           O   tau( 162) = (   0.8335231   1.1256108   1.4406159  )

     number of k points=     8
                       cart. coord. in units 2pi/alat
        k(    1) = (   0.0000000   0.0000000   0.0000000), wk =   0.1666667
        k(    2) = (   0.0000000   0.0000000  -0.3247633), wk =   0.1666667
        k(    3) = (   0.0000000  -0.3247633  -0.3247633), wk =   0.1666667
        k(    4) = (   0.3333333   0.0000000   0.0000000), wk =   0.3333333
        k(    5) = (   0.3333333   0.0000000  -0.3247633), wk =   0.3333333
        k(    6) = (   0.3333333  -0.3247633  -0.3247633), wk =   0.3333333
        k(    7) = (   0.0000000  -0.3247633   0.0000000), wk =   0.1666667
        k(    8) = (  -0.3333333  -0.3247633   0.0000000), wk =   0.3333333

     Dense  grid:   665041 G-vectors     FFT dimensions: (  81, 125, 125)

     Estimated max dynamical RAM per process >     297.43 MB

     Estimated total dynamical RAM >      16.27 GB

     Check: negative core charge=   -0.000052

     Initial potential from superposition of free atoms

     starting charge 1403.95515, renormalised to 1404.00000
     Starting wfcs are  918 randomized atomic wfcs

     total cpu time spent up to now is       32.2 secs

     Self-consistent Calculation

     iteration #  1     ecut=    60.00 Ry     beta= 0.70
     Davidson diagonalization with overlap
     ethr =  1.00E-02,  avg # of iterations =  2.0

     total cpu time spent up to now is      122.8 secs

     total energy              =  -13210.92850764 Ry
     estimated scf accuracy    <      34.04647609 Ry

     iteration #  2     ecut=    60.00 Ry     beta= 0.70
     Davidson diagonalization with overlap
     ethr =  2.42E-03,  avg # of iterations =  3.9

     total cpu time spent up to now is      220.2 secs

     total energy              =  -13222.24975818 Ry
     estimated scf accuracy    <      22.02552809 Ry

     iteration #  3     ecut=    60.00 Ry     beta= 0.70
     Davidson diagonalization with overlap
     ethr =  1.57E-03,  avg # of iterations =  2.0

     total cpu time spent up to now is      306.5 secs

     total energy              =  -13225.45824790 Ry
     estimated scf accuracy    <       0.43782500 Ry

     iteration #  4     ecut=    60.00 Ry     beta= 0.70
     Davidson diagonalization with overlap
     ethr =  3.12E-05,  avg # of iterations =  6.0

     total cpu time spent up to now is      434.4 secs

     total energy              =  -13225.87543010 Ry
     estimated scf accuracy    <       0.56211392 Ry

     iteration #  5     ecut=    60.00 Ry     beta= 0.70
     Davidson diagonalization with overlap
     ethr =  3.12E-05,  avg # of iterations =  2.0

     total cpu time spent up to now is      515.1 secs

     total energy              =  -13225.87826816 Ry
     estimated scf accuracy    <       0.09242557 Ry

     iteration #  6     ecut=    60.00 Ry     beta= 0.70
     Davidson diagonalization with overlap
     ethr =  6.58E-06,  avg # of iterations =  4.5

     total cpu time spent up to now is      614.9 secs

     total energy              =  -13225.90764340 Ry
     estimated scf accuracy    <       0.00054657 Ry

     iteration #  7     ecut=    60.00 Ry     beta= 0.70
     Davidson diagonalization with overlap
     ethr =  3.89E-08,  avg # of iterations =  6.0

     total cpu time spent up to now is      751.5 secs

     total energy              =  -13225.90718758 Ry
     estimated scf accuracy    <       0.00397850 Ry

     iteration #  8     ecut=    60.00 Ry     beta= 0.70
     Davidson diagonalization with overlap
     ethr =  3.89E-08,  avg # of iterations =  4.5

     total cpu time spent up to now is      853.7 secs

     total energy              =  -13225.90712499 Ry
     estimated scf accuracy    <       0.00080325 Ry

     iteration #  9     ecut=    60.00 Ry     beta= 0.70
     Davidson diagonalization with overlap
     ethr =  3.89E-08,  avg # of iterations =  2.4

     total cpu time spent up to now is      941.0 secs

     total energy              =  -13225.90719542 Ry
     estimated scf accuracy    <       0.00008609 Ry

     iteration # 10     ecut=    60.00 Ry     beta= 0.70
     Davidson diagonalization with overlap
     ethr =  6.13E-09,  avg # of iterations =  4.5

     total cpu time spent up to now is     1034.3 secs

     total energy              =  -13225.90721047 Ry
     estimated scf accuracy    <       0.00000649 Ry

     iteration # 11     ecut=    60.00 Ry     beta= 0.70
     Davidson diagonalization with overlap
     ethr =  4.63E-10,  avg # of iterations =  2.4

     total cpu time spent up to now is     1121.5 secs

     total energy              =  -13225.90721171 Ry
     estimated scf accuracy    <       0.00000038 Ry

     iteration # 12     ecut=    60.00 Ry     beta= 0.70
     Davidson diagonalization with overlap
     ethr =  2.72E-11,  avg # of iterations =  5.2

     total cpu time spent up to now is     1225.1 secs

     total energy              =  -13225.90721183 Ry
     estimated scf accuracy    <       0.00000004 Ry

     iteration # 13     ecut=    60.00 Ry     beta= 0.70
     Davidson diagonalization with overlap
     ethr =  2.70E-12,  avg # of iterations =  2.2

     total cpu time spent up to now is     1301.6 secs

     total energy              =  -13225.90721183 Ry
     estimated scf accuracy    <       0.00000003 Ry

     iteration # 14     ecut=    60.00 Ry     beta= 0.70
     Davidson diagonalization with overlap
     ethr =  1.99E-12,  avg # of iterations =  2.0

     total cpu time spent up to now is     1383.3 secs

     End of self-consistent calculation

          k = 0.0000 0.0000 0.0000 ( 83133 PWs)   bands (ev):

   -14.2937 -14.2532 -14.2524 -14.2517 -14.2511 -14.2357 -14.2348 -14.2344
   -14.2340 -14.2223 -14.2200 -14.2195 -14.2193 -14.2193 -14.2190 -14.2189
   -14.2189 -14.2173 -14.2172 -14.2170 -14.2170 -14.2168 -14.2168 -14.2162
   -14.2160 -14.2121 -14.2117 -14.2116 -14.2113 -14.2112 -14.2111 -14.2108
   -14.2108 -14.1894 -14.1886 -14.1881 -14.1878 -14.1851 -14.1840 -14.1835
   -14.1834 -14.1830 -14.1827 -14.1827 -14.1822 -14.1816 -14.1814 -14.1812
   -14.1811 -14.1634 -14.1627 -14.1620 -14.1614 -14.1205 -14.1194 -14.1192
   -14.0663 -14.0659 -14.0656 -14.0655 -14.0650 -14.0650 -14.0648 -14.0641
   -14.0415 -14.0415 -14.0411 -14.0410 -14.0405 -14.0404 -14.0400 -14.0397
   -14.0153 -14.0149 -14.0148 -14.0146 -14.0142 -14.0141 -14.0138 -14.0135
   -13.9935 -13.9933 -13.9928 -13.9916 -13.9915 -13.9914 -13.9912 -13.9911
   -13.9909 -13.9908 -13.9906 -13.9902 -13.9894 -13.9894 -13.9884 -13.9876
   -13.9870 -13.9868 -13.9865 -13.9863 -13.9861 -13.9857 -13.9854 -13.9847
   -13.9843 -13.9835 -13.9830 -13.9828 -13.9821 -13.9820 -13.9818 -13.9813
   -13.9807 -13.9806 -13.9800 -13.9791 -13.9784 -13.9640 -13.9631 -13.9625
   -13.9620 -13.9579 -13.9575 -13.9568 -13.9560 -13.9429 -13.9390 -13.9384
   -13.9377 -13.9370 -13.9369 -13.9365 -13.9365 -13.9363 -13.9361 -13.9360
   -13.9360 -13.9358 -13.9358 -13.9357 -13.9357 -13.9355 -13.9355 -13.9353
   -13.9352 -13.9348 -13.9347 -13.9347 -13.9345 -13.9345 -13.9345 -13.9345
   -13.9343 -13.9339 -13.9337 -13.9333 -13.9330 -13.9326 -13.9323 -13.9313
   -13.9300 -13.9289 -13.9285 -13.9271 -13.9224 -13.9203 -13.9199 -13.9197
   -13.9193 -13.9192 -13.9188 -13.9188 -13.9170 -13.9165 -13.9156 -13.9154
   -13.9148 -13.9147 -13.9145 -13.9145 -13.9143 -13.9143 -13.9142 -13.9141
   -13.9139 -13.9139 -13.9134 -13.9134 -13.9134 -13.9133 -13.9131 -13.9127
   -13.9127 -13.9122 -13.9121 -13.9116 -13.9109 -13.9106 -13.9095 -13.9070
   -13.9056 -13.9047 -13.9039 -13.9038 -13.9031 -13.9024 -13.9024 -13.9021
   -13.9016 -13.8990 -13.8975 -13.8964 -13.8963 -13.8959 -13.8958 -13.8958
   -13.8956 -13.8955 -13.8952 -13.8950 -13.8949 -13.8948 -13.8945 -13.8945
   -13.8944 -13.8942 -13.8941 -13.8939 -13.8936 -13.8928 -13.8922 -13.8921
   -13.8921 -13.8917 -13.8917 -13.8915 -13.8914 -13.8911 -13.8909 -13.8909
   -13.8908 -13.8906 -13.8903 -13.8903 -13.8902 -13.8897 -13.8892 -13.8886
   -13.8883 -13.8877 -13.8874 -13.8867 -13.8865 -13.8861 -13.8860 -13.8858
   -13.8858 -13.8855 -13.8854 -13.8851 -13.8849 -13.8848 -13.8847 -13.8846
   -13.8842 -13.8840 -13.8834 -13.8831 -13.8816 -13.8814 -10.2581  -9.7884
    -9.7878  -9.7873  -9.7869  -9.3403  -9.3401  -9.3398  -9.3394  -9.1869
    -9.1867  -8.8139  -8.8136  -8.8129  -8.8128  -8.8126  -8.8123  -8.8121
    -8.8115  -8.5485  -8.5480  -8.5474  -8.5470  -8.4906  -8.4902  -8.4893
    -8.4890  -8.4890  -8.4889  -8.4887  -8.4884  -8.4735  -8.4726  -8.4722
    -8.4715  -7.9441  -7.9431  -7.9422  -7.9421  -7.9419  -7.9417  -7.9413
    -7.9412  -7.8871  -7.8863  -7.8856  -7.8856  -7.8851  -7.8851  -7.8848
    -7.8846  -7.5845  -7.5837  -7.5832  -7.5826  -7.4328  -7.4325  -7.1663
    -7.1657  -7.1057  -7.1050  -7.1049  -7.1046  -6.9713  -6.9707  -6.9701
    -6.9697  -6.7963  -6.7957  -6.7953  -6.7951  -6.7949  -6.7946  -6.7940
    -6.7933  -6.7338  -6.6771  -6.6771  -6.6771  -6.6763  -6.5959  -6.5956
    -6.5953  -6.5952  -6.5950  -6.5946  -6.5944  -6.5937  -6.5871  -6.5862
    -6.5855  -6.5848  -6.5751  -6.5746  -6.5743  -6.5742  -6.5741  -6.5740
    -6.5736  -6.5728  -6.5017  -6.5012  -6.5010  -6.5007  -6.5006  -6.5004
    -6.5000  -6.4994   0.4412   0.4860   0.4868   1.2365   1.2368   1.2372
     1.2375   1.2377   1.2379   1.2381   1.2391   1.2946   1.2951   1.2957
     1.2974   1.3117   1.3126   1.3129   1.3131   1.3132   1.3137   1.3138
     1.3156   1.8133   1.8141   1.8144   1.8148   1.8149   1.8151   1.8153
     1.8165   2.2361   2.2369   2.2372   2.2386   2.8192   2.8202   2.8207
     2.8211   2.8211   2.8217   2.8218   2.8223   3.3699   3.3705   3.4060
     3.4063   3.4067   3.4074   3.6826   3.6833   3.6838   3.6842   3.8358
     3.8363   3.8368   3.8369   3.8372   3.8373   3.8378   3.8381   4.1550
     4.1554   4.1554   4.1555   4.1560   4.1560   4.1564   4.1569   4.6108
     4.6115   4.6119   4.6119   4.6120   4.6121   4.6123   4.6127   4.9210
     4.9212   4.9214   4.9216   4.9218   4.9220   4.9224   4.9227   4.9272
     4.9273   5.0084   5.0087   5.0090   5.0090   5.0092   5.0093   5.0096
     5.0101   5.2208   5.2217   5.4183   5.4191   5.4195   5.4202   5.5932
     5.5934   5.5939   5.5940   5.5942   5.5943   5.5944   5.5946   5.5981
     5.5985   5.5986   5.5990   5.6666   5.6674   5.6677   5.6681   5.6681
     5.6684   5.6685   5.6687   5.7507   5.8846   5.8852   5.8855   5.8861
     6.1690   6.1702   6.1704   6.1710   6.1904   6.3695   6.3698   6.3700
     6.3713   6.4037   6.4040   6.4805   6.4813   6.4819   6.4825   6.4827
     6.4828   6.4833   6.4835   6.4838   6.4838   6.4846   6.4867   6.6756
     6.6762   6.6773   6.6776   6.6780   6.6780   6.6783   6.6784   6.7643
     6.7650   6.7656   6.7661   7.0538   7.0547   7.0555   7.0560   7.0653
     7.0658   7.0663   7.0668   7.1743   7.2100   7.2111   7.2113   7.2121
     7.2483   7.2486   7.5779   7.5783   7.5785   7.5789   7.6373   7.6382
     7.6385   7.6390   7.8607   7.8609   7.8611   7.8614   7.8614   7.8617
     7.8621   7.8624   7.9047   7.9053   7.9055   7.9055   7.9057   7.9060
     7.9061   7.9067   8.0716   8.0943   8.0944   8.0946   8.0948   8.0949
     8.0950   8.0953   8.0962   8.1636   8.1640   8.1643   8.1647   8.3030
     8.3034   8.3041   8.3045   8.4448   8.4455   8.4459   8.4467   8.4873
     8.4873   8.4875   8.4877   8.4879   8.4880   8.4882   8.4896   8.5170
     8.5172   8.6104   8.6110   8.6115   8.6117   8.6254   8.6260   8.6264
     8.6269   8.6503   8.6507   8.6507   8.6511   8.6513   8.6514   8.6515
     8.6518   8.7154   8.7159   8.7167   8.7173   8.9307   8.9314   8.9318
     8.9321   8.9325   8.9325   8.9330   8.9333   9.0438   9.0444   9.0448
     9.0449   9.0451   9.0453   9.0456   9.0457   9.1439   9.1440   9.1442
     9.1445   9.1536   9.1536   9.1538   9.1540   9.1540   9.1544   9.1545
     9.1549   9.2553   9.2557   9.2561   9.2561   9.2564   9.2565   9.2566
     9.2573   9.2852   9.2856   9.2862   9.2865   9.4636   9.4637   9.5290
     9.5302   9.5306   9.5310   9.5390   9.5393   9.5401   9.5402   9.5406
     9.5407   9.5414   9.5415   9.5836   9.5837   9.5841   9.5843   9.5847
     9.5847   9.5849   9.5853   9.6804   9.6809   9.6812   9.6816   9.7106
     9.7108   9.9183   9.9194   9.9200   9.9212  10.4931

          k = 0.0000 0.0000-0.3248 ( 83134 PWs)   bands (ev):

   -14.2832 -14.2810 -14.2492 -14.2486 -14.2468 -14.2466 -14.2281 -14.2265
   -14.2260 -14.2259 -14.2254 -14.2253 -14.2251 -14.2248 -14.2244 -14.2243
   -14.2241 -14.2239 -14.2128 -14.2124 -14.2117 -14.2117 -14.2035 -14.2033
   -14.2022 -14.2012 -14.2001 -14.2001 -14.1986 -14.1978 -14.1973 -14.1972
   -14.1971 -14.1970 -14.1969 -14.1967 -14.1953 -14.1952 -14.1952 -14.1951
   -14.1945 -14.1942 -14.1940 -14.1936 -14.1909 -14.1907 -14.1889 -14.1888
   -14.1713 -14.1706 -14.1688 -14.1688 -14.1321 -14.1300 -14.0855 -14.0852
   -14.0840 -14.0840 -14.0574 -14.0568 -14.0566 -14.0565 -14.0552 -14.0552
   -14.0549 -14.0547 -14.0473 -14.0471 -14.0470 -14.0470 -14.0466 -14.0466
   -14.0462 -14.0459 -14.0108 -14.0108 -14.0107 -14.0106 -13.9968 -13.9964
   -13.9962 -13.9962 -13.9949 -13.9947 -13.9944 -13.9941 -13.9926 -13.9901
   -13.9892 -13.9889 -13.9887 -13.9886 -13.9884 -13.9878 -13.9871 -13.9871
   -13.9869 -13.9867 -13.9866 -13.9859 -13.9854 -13.9849 -13.9847 -13.9841
   -13.9839 -13.9834 -13.9834 -13.9831 -13.9825 -13.9823 -13.9815 -13.9809
   -13.9798 -13.9777 -13.9713 -13.9710 -13.9703 -13.9701 -13.9683 -13.9681
   -13.9580 -13.9573 -13.9556 -13.9554 -13.9434 -13.9399 -13.9391 -13.9387
   -13.9379 -13.9379 -13.9376 -13.9375 -13.9371 -13.9371 -13.9368 -13.9368
   -13.9365 -13.9362 -13.9361 -13.9359 -13.9356 -13.9356 -13.9355 -13.9354
   -13.9352 -13.9351 -13.9349 -13.9348 -13.9344 -13.9343 -13.9341 -13.9341
   -13.9339 -13.9336 -13.9334 -13.9331 -13.9328 -13.9322 -13.9321 -13.9319
   -13.9307 -13.9297 -13.9248 -13.9220 -13.9213 -13.9210 -13.9206 -13.9204
   -13.9199 -13.9198 -13.9195 -13.9195 -13.9193 -13.9192 -13.9190 -13.9189
   -13.9188 -13.9186 -13.9183 -13.9179 -13.9178 -13.9174 -13.9162 -13.9158
   -13.9157 -13.9151 -13.9149 -13.9138 -13.9136 -13.9135 -13.9130 -13.9130
   -13.9127 -13.9126 -13.9124 -13.9122 -13.9117 -13.9110 -13.9106 -13.9097
   -13.9081 -13.9069 -13.9053 -13.9049 -13.9029 -13.9021 -13.9015 -13.9008
   -13.9005 -13.9001 -13.8991 -13.8989 -13.8986 -13.8981 -13.8964 -13.8964
   -13.8954 -13.8948 -13.8946 -13.8943 -13.8940 -13.8940 -13.8939 -13.8934
   -13.8933 -13.8926 -13.8925 -13.8925 -13.8922 -13.8921 -13.8921 -13.8916
   -13.8915 -13.8913 -13.8911 -13.8910 -13.8908 -13.8907 -13.8905 -13.8904
   -13.8891 -13.8887 -13.8887 -13.8883 -13.8882 -13.8880 -13.8880 -13.8879
   -13.8878 -13.8877 -13.8876 -13.8874 -13.8873 -13.8870 -13.8869 -13.8866
   -13.8865 -13.8862 -13.8855 -13.8853 -13.8850 -13.8849 -13.8847 -13.8845
   -13.8844 -13.8837 -13.8836 -13.8835 -13.8813 -13.8812 -10.1393 -10.1374
    -9.6722  -9.6719  -9.6703  -9.6700  -9.2367  -9.2360  -9.0917  -9.0915
    -9.0899  -9.0894  -8.8658  -8.8648  -8.8646  -8.8643  -8.7276  -8.7273
    -8.7268  -8.7267  -8.7257  -8.7249  -8.7249  -8.7247  -8.4845  -8.4839
    -8.4829  -8.4819  -8.3894  -8.3887  -8.3885  -8.3882  -8.1811  -8.1797
    -8.1794  -8.1792  -8.1790  -8.1790  -8.1788  -8.1787  -7.8812  -7.8808
    -7.8801  -7.8799  -7.8792  -7.8785  -7.8782  -7.8780  -7.8413  -7.8393
    -7.4119  -7.4114  -7.4105  -7.4101  -7.3727  -7.3726  -7.3722  -7.3718
    -7.3441  -7.3421  -7.3173  -7.3166  -7.3152  -7.3145  -6.8053  -6.8047
    -6.7398  -6.7394  -6.7394  -6.7392  -6.7390  -6.7390  -6.7387  -6.7377
    -6.6849  -6.6847  -6.6844  -6.6843  -6.6836  -6.6835  -6.6831  -6.6819
    -6.6737  -6.6729  -6.6713  -6.6708  -6.6473  -6.6468  -6.6450  -6.6447
    -6.5910  -6.5891  -6.5822  -6.5817  -6.5809  -6.5806  -6.5088  -6.5086
    -6.5085  -6.5081  -6.5015  -6.5013  -6.5010  -6.5009  -6.5002  -6.4999
    -6.4994  -6.4990   0.6599   0.6623   0.7081   0.7087   0.7100   0.7111
     1.2558   1.2561   1.2564   1.2569   1.2574   1.2580   1.2583   1.2593
     1.4056   1.4064   1.4067   1.4069   1.4071   1.4073   1.4074   1.4085
     1.5534   1.5543   1.5557   1.5572   2.1264   2.1273   2.1273   2.1277
     2.2558   2.2563   2.4265   2.4276   2.4278   2.4279   2.4279   2.4285
     2.4288   2.4293   3.0956   3.0956   3.0960   3.0970   3.2175   3.2178
     3.2191   3.2199   3.5673   3.5678   3.5694   3.5701   3.6747   3.6750
     3.6752   3.6757   3.9018   3.9023   3.9024   3.9027   3.9031   3.9033
     3.9039   3.9039   4.4040   4.4043   4.4056   4.4058   4.5702   4.5719
     4.8117   4.8122   4.8125   4.8127   4.8131   4.8131   4.8131   4.8132
     4.8618   4.8618   4.8622   4.8622   4.8624   4.8626   4.8629   4.8631
     5.2088   5.2089   5.2091   5.2098   5.2533   5.2542   5.2544   5.2544
     5.2549   5.2552   5.2552   5.2554   5.3811   5.3828   5.6205   5.6209
     5.6220   5.6221   5.6222   5.6223   5.6224   5.6226   5.6228   5.6228
     5.6233   5.6238   5.6402   5.6406   5.6411   5.6415   5.6419   5.6421
     5.6432   5.6433   5.6518   5.6524   5.6539   5.6547   5.7860   5.7877
     5.7878   5.7881   5.7884   5.7888   5.7890   5.7891   5.8566   5.8586
     5.9307   5.9312   5.9314   5.9321   6.2518   6.2526   6.2540   6.2546
     6.4392   6.4408   6.6482   6.6491   6.7093   6.7096   6.7857   6.7869
     6.7871   6.7876   6.9275   6.9282   6.9290   6.9291   7.1849   7.1855
     7.1867   7.1878   7.1916   7.1920   7.1937   7.1940   7.3352   7.3353
     7.3358   7.3364   7.3576   7.3581   7.3582   7.3584   7.3588   7.3589
     7.3590   7.3603   7.4242   7.4250   7.4266   7.4268   7.5539   7.5555
     7.5629   7.5638   7.5647   7.5648   7.6929   7.6930   7.6937   7.6938
     7.6939   7.6940   7.6941   7.6958   7.7597   7.7609   7.7613   7.7613
     8.0699   8.0701   8.0706   8.0707   8.1298   8.1298   8.1299   8.1307
     8.2142   8.2146   8.2149   8.2152   8.2154   8.2162   8.2166   8.2167
     8.2214   8.2219   8.2234   8.2237   8.4171   8.4171   8.4176   8.4177
     8.4178   8.4182   8.4189   8.4192   8.4967   8.4970   8.4972   8.4978
     8.5234   8.5242   8.5252   8.5256   8.5444   8.5466   8.6487   8.6491
     8.6901   8.6907   8.7126   8.7134   8.7144   8.7152   8.7354   8.7354
     8.7358   8.7365   8.9730   8.9733   8.9737   8.9739   8.9741   8.9741
     8.9743   8.9747   8.9831   8.9833   8.9835   8.9837   8.9837   8.9839
     8.9843   8.9844   9.0331   9.0349   9.0822   9.0823   9.0845   9.0847
     9.1715   9.1719   9.1738   9.1739   9.1879   9.1883   9.1885   9.1886
     9.1887   9.1888   9.1888   9.1893   9.2746   9.2755   9.2757   9.2758
     9.3399   9.3404   9.3405   9.3409   9.4212   9.4219   9.4220   9.4223
     9.4224   9.4224   9.4225   9.4230   9.5116   9.5119   9.5139   9.5140
     9.5194   9.5201   9.5213   9.5217   9.5671   9.5672   9.5676   9.5678
     9.5694   9.5694   9.5699   9.5700   9.6935   9.6940   9.7005   9.7028
     9.8152   9.8162   9.8176   9.8184  10.3155  10.3181

          k = 0.0000-0.3248-0.3248 ( 83080 PWs)   bands (ev):

   -14.2756 -14.2742 -14.2733 -14.2722 -14.2215 -14.2193 -14.2189 -14.2187
   -14.2181 -14.2177 -14.2175 -14.2174 -14.2172 -14.2172 -14.2167 -14.2166
   -14.2165 -14.2165 -14.2160 -14.2159 -14.2158 -14.2157 -14.2152 -14.2152
   -14.2151 -14.2149 -14.2145 -14.2142 -14.2139 -14.2138 -14.2093 -14.2086
   -14.2077 -14.2077 -14.2069 -14.2068 -14.2060 -14.2057 -14.1836 -14.1824
   -14.1820 -14.1820 -14.1809 -14.1809 -14.1809 -14.1806 -14.1805 -14.1802
   -14.1800 -14.1799 -14.1416 -14.1403 -14.1394 -14.1383 -14.0845 -14.0842
   -14.0833 -14.0833 -14.0827 -14.0826 -14.0819 -14.0816 -14.0601 -14.0600
   -14.0600 -14.0596 -14.0208 -14.0204 -14.0198 -14.0198 -14.0190 -14.0190
   -14.0190 -14.0190 -14.0184 -14.0182 -14.0182 -14.0179 -14.0178 -14.0175
   -14.0169 -14.0166 -13.9927 -13.9905 -13.9903 -13.9897 -13.9892 -13.9891
   -13.9891 -13.9888 -13.9883 -13.9883 -13.9880 -13.9876 -13.9871 -13.9870
   -13.9869 -13.9868 -13.9861 -13.9860 -13.9858 -13.9854 -13.9853 -13.9844
   -13.9842 -13.9840 -13.9831 -13.9820 -13.9816 -13.9816 -13.9804 -13.9804
   -13.9778 -13.9773 -13.9731 -13.9724 -13.9716 -13.9716 -13.9709 -13.9707
   -13.9696 -13.9695 -13.9447 -13.9434 -13.9425 -13.9421 -13.9413 -13.9388
   -13.9378 -13.9374 -13.9368 -13.9368 -13.9364 -13.9364 -13.9357 -13.9357
   -13.9356 -13.9355 -13.9353 -13.9352 -13.9351 -13.9351 -13.9348 -13.9348
   -13.9343 -13.9342 -13.9341 -13.9340 -13.9339 -13.9336 -13.9331 -13.9331
   -13.9329 -13.9328 -13.9324 -13.9321 -13.9321 -13.9313 -13.9311 -13.9311
   -13.9302 -13.9288 -13.9247 -13.9229 -13.9223 -13.9221 -13.9220 -13.9220
   -13.9212 -13.9212 -13.9185 -13.9178 -13.9176 -13.9176 -13.9169 -13.9160
   -13.9155 -13.9150 -13.9148 -13.9146 -13.9143 -13.9142 -13.9142 -13.9141
   -13.9141 -13.9140 -13.9140 -13.9137 -13.9137 -13.9133 -13.9132 -13.9131
   -13.9131 -13.9130 -13.9127 -13.9127 -13.9122 -13.9121 -13.9115 -13.9107
   -13.9107 -13.9094 -13.9032 -13.9021 -13.9016 -13.9007 -13.9005 -13.8989
   -13.8984 -13.8983 -13.8979 -13.8979 -13.8978 -13.8977 -13.8971 -13.8970
   -13.8968 -13.8967 -13.8967 -13.8966 -13.8963 -13.8962 -13.8960 -13.8958
   -13.8958 -13.8958 -13.8955 -13.8949 -13.8948 -13.8948 -13.8929 -13.8926
   -13.8920 -13.8907 -13.8904 -13.8902 -13.8897 -13.8894 -13.8889 -13.8887
   -13.8886 -13.8886 -13.8885 -13.8885 -13.8881 -13.8880 -13.8879 -13.8878
   -13.8877 -13.8875 -13.8875 -13.8871 -13.8871 -13.8871 -13.8870 -13.8867
   -13.8865 -13.8864 -13.8861 -13.8858 -13.8856 -13.8855 -13.8853 -13.8847
   -13.8842 -13.8837 -13.8832 -13.8826 -13.8819 -13.8814 -10.0205 -10.0193
   -10.0183 -10.0176  -9.1337  -9.1335  -9.1332  -9.1326  -9.1323  -9.1317
    -9.1314  -9.1309  -8.9980  -8.9976  -8.9964  -8.9963  -8.9955  -8.9953
    -8.9952  -8.9943  -8.6667  -8.6659  -8.3277  -8.3273  -8.3259  -8.3258
    -8.3255  -8.3251  -8.3249  -8.3249  -8.3248  -8.3245  -8.3242  -8.3242
    -8.3240  -8.3239  -8.3235  -8.3228  -8.0933  -8.0923  -8.0923  -8.0921
    -7.9337  -7.9330  -7.9324  -7.9321  -7.6328  -7.6323  -7.5325  -7.5318
    -7.5307  -7.5307  -7.5301  -7.5297  -7.5297  -7.5293  -7.4846  -7.4839
    -7.4833  -7.4828  -6.9790  -6.9781  -6.9775  -6.9770  -6.9765  -6.9762
    -6.9755  -6.9749  -6.8332  -6.8332  -6.8332  -6.8323  -6.7173  -6.7167
    -6.7163  -6.7162  -6.7160  -6.7156  -6.7151  -6.7143  -6.5816  -6.5807
    -6.5802  -6.5800  -6.5794  -6.5793  -6.5793  -6.5792  -6.5788  -6.5787
    -6.5785  -6.5785  -6.5783  -6.5776  -6.5771  -6.5762  -6.5551  -6.5535
    -6.5528  -6.5516  -6.5077  -6.5074  -6.5073  -6.5071  -6.5070  -6.5070
    -6.5062  -6.5054   0.8574   0.8581   0.8589   0.8591   0.8598   0.8600
     0.8602   0.8620   0.8949   0.8960   0.8968   0.8994   1.2659   1.2664
     1.2666   1.2674   1.7965   1.7972   1.7977   1.7978   1.7980   1.7985
     1.7986   1.7987   1.7987   1.7991   1.7993   1.7994   1.7996   1.7999
     1.8002   1.8017   2.5032   2.5040   2.5047   2.5047   2.5054   2.5057
     2.5063   2.5080   3.0209   3.0219   3.0229   3.0230   3.0230   3.0235
     3.0236   3.0245   3.4801   3.4807   3.9778   3.9778   3.9779   3.9783
     3.9784   3.9785   3.9790   3.9791   4.2324   4.2328   4.2329   4.2330
     4.2331   4.2334   4.2335   4.2335   4.2336   4.2339   4.2341   4.2341
     4.2343   4.2346   4.2350   4.2354   4.4260   4.4266   4.4270   4.4278
     4.7478   4.7479   4.7481   4.7483   5.2384   5.2390   5.2392   5.2402
     5.3447   5.3448   5.3451   5.3455   5.3456   5.3457   5.3461   5.3462
     5.4211   5.4216   5.4221   5.4222   5.4224   5.4224   5.4229   5.4230
     5.4380   5.4392   5.4395   5.4397   5.4401   5.4401   5.4405   5.4406
     5.4408   5.4409   5.4412   5.4412   5.4414   5.4416   5.4418   5.4422
     5.5635   5.5643   5.9601   5.9618   5.9628   5.9632   6.1993   6.1998
     6.2007   6.2007   6.2008   6.2008   6.2011   6.2013   6.3311   6.3314
     6.3316   6.3318   6.3321   6.3321   6.3328   6.3348   6.4761   6.4769
     6.4776   6.4781   6.4784   6.4784   6.4792   6.4800   6.5943   6.5945
     6.5947   6.5963   6.6424   6.6435   6.6444   6.6452   6.6903   6.6911
     6.6916   6.6924   6.6927   6.6933   6.6935   6.6944   6.8220   6.8221
     6.8228   6.8228   6.8400   6.8408   7.5979   7.5991   7.6000   7.6004
     7.7365   7.7374   7.7383   7.7392   7.7786   7.7797   7.7798   7.7802
     7.7809   7.7810   7.7815   7.7818   7.8453   7.8457   7.8463   7.8468
     7.8469   7.8471   7.8479   7.8484   7.9361   7.9363   7.9364   7.9365
     7.9369   7.9369   7.9377   7.9382   8.2076   8.2082   8.2083   8.2087
     8.2088   8.2090   8.2090   8.2092   8.2093   8.2094   8.2096   8.2097
     8.2098   8.2100   8.2108   8.2120   8.2303   8.2305   8.4159   8.4163
     8.4903   8.4909   8.4913   8.4921   8.6286   8.6298   8.6301   8.6308
     8.6309   8.6315   8.6319   8.6327   8.6661   8.6669   8.6670   8.6676
     8.6829   8.6841   8.6844   8.6845   8.6848   8.6848   8.6851   8.6851
     8.6853   8.6855   8.6856   8.6857   8.6859   8.6864   8.6864   8.6870
     8.7070   8.7074   8.7079   8.7090   9.0712   9.0718   9.0783   9.0786
     9.0790   9.0791   9.0795   9.0796   9.0799   9.0804   9.1737   9.1738
     9.1740   9.1743   9.1749   9.1750   9.1750   9.1752   9.3070   9.3072
     9.3075   9.3078   9.3112   9.3112   9.3114   9.3118   9.3732   9.3736
     9.3744   9.3747   9.3751   9.3754   9.3757   9.3757   9.3759   9.3760
     9.3763   9.3764   9.3768   9.3770   9.3776   9.3781   9.5503   9.5506
     9.5518   9.5519   9.5528   9.5529   9.5537   9.5539   9.5623   9.5630
     9.5639   9.5641   9.5646   9.5651   9.5656   9.5661   9.5916   9.5920
     9.5929   9.5931  10.1704  10.1723  10.1732  10.1746

          k = 0.3333 0.0000 0.0000 ( 83060 PWs)   bands (ev):

   -14.2714 -14.2705 -14.2694 -14.2687 -14.2685 -14.2649 -14.2644 -14.2640
   -14.2638 -14.2601 -14.2596 -14.2593 -14.2591 -14.2382 -14.2373 -14.2367
   -14.2364 -14.2314 -14.2314 -14.2274 -14.2266 -14.2260 -14.2253 -14.2073
   -14.2065 -14.2060 -14.2057 -14.2000 -14.1866 -14.1863 -14.1856 -14.1850
   -14.1644 -14.1643 -14.1637 -14.1635 -14.1626 -14.1619 -14.1614 -14.1611
   -14.1382 -14.1379 -14.1375 -14.1373 -14.1373 -14.1370 -14.1366 -14.1360
   -14.1189 -14.1188 -14.1183 -14.1179 -14.1003 -14.0996 -14.0987 -14.0969
   -14.0966 -14.0959 -14.0956 -14.0682 -14.0673 -14.0673 -14.0671 -14.0526
   -14.0525 -14.0521 -14.0519 -14.0476 -14.0328 -14.0326 -14.0319 -14.0317
   -14.0313 -14.0311 -14.0305 -14.0304 -14.0287 -14.0243 -14.0215 -14.0207
   -14.0201 -14.0198 -14.0193 -14.0192 -14.0190 -14.0186 -14.0182 -14.0181
   -14.0179 -14.0176 -14.0172 -14.0167 -14.0156 -14.0151 -14.0149 -14.0084
   -14.0036 -14.0032 -14.0025 -14.0019 -13.9949 -13.9946 -13.9939 -13.9937
   -13.9835 -13.9831 -13.9825 -13.9823 -13.9817 -13.9694 -13.9679 -13.9671
   -13.9665 -13.9664 -13.9660 -13.9651 -13.9646 -13.9586 -13.9573 -13.9566
   -13.9561 -13.9556 -13.9523 -13.9509 -13.9505 -13.9499 -13.9495 -13.9493
   -13.9489 -13.9486 -13.9482 -13.9480 -13.9479 -13.9476 -13.9475 -13.9473
   -13.9470 -13.9468 -13.9455 -13.9454 -13.9450 -13.9443 -13.9436 -13.9434
   -13.9433 -13.9429 -13.9425 -13.9422 -13.9421 -13.9417 -13.9407 -13.9398
   -13.9381 -13.9376 -13.9370 -13.9368 -13.9366 -13.9365 -13.9358 -13.9355
   -13.9279 -13.9242 -13.9230 -13.9218 -13.9197 -13.9187 -13.9177 -13.9176
   -13.9167 -13.9165 -13.9162 -13.9159 -13.9155 -13.9150 -13.9145 -13.9140
   -13.9138 -13.9121 -13.9115 -13.9114 -13.9112 -13.9104 -13.9096 -13.9090
   -13.9086 -13.9076 -13.9054 -13.9034 -13.9024 -13.9019 -13.9018 -13.9016
   -13.9015 -13.9012 -13.9009 -13.9008 -13.9006 -13.9001 -13.9000 -13.8999
   -13.8997 -13.8997 -13.8996 -13.8991 -13.8990 -13.8984 -13.8978 -13.8976
   -13.8968 -13.8964 -13.8963 -13.8946 -13.8946 -13.8945 -13.8942 -13.8940
   -13.8939 -13.8934 -13.8932 -13.8929 -13.8929 -13.8928 -13.8923 -13.8922
   -13.8920 -13.8918 -13.8916 -13.8916 -13.8914 -13.8912 -13.8910 -13.8905
   -13.8900 -13.8897 -13.8896 -13.8894 -13.8892 -13.8888 -13.8887 -13.8886
   -13.8884 -13.8882 -13.8881 -13.8880 -13.8878 -13.8874 -13.8872 -13.8870
   -13.8869 -13.8869 -13.8868 -13.8867 -13.8866 -13.8865 -13.8864 -13.8863
   -13.8860 -13.8858 -13.8857 -13.8853 -13.8852 -13.8849 -13.8847 -13.8845
   -13.8840 -13.8838 -13.8832 -13.8827 -13.8814 -13.8810 -10.1350  -9.7696
    -9.6697  -9.6690  -9.6686  -9.6681  -9.3279  -9.3272  -9.3269  -9.3263
    -9.2318  -9.2316  -9.2313  -9.2308  -8.9260  -8.9259  -8.9255  -8.9251
    -8.4594  -8.4452  -8.4447  -8.4442  -8.4438  -8.3943  -8.3933  -8.3929
    -8.3923  -8.2449  -8.2438  -8.2436  -8.2429  -8.1854  -8.1845  -8.1840
    -8.1835  -8.1767  -8.1762  -8.1756  -8.1753  -8.0623  -8.0620  -8.0614
    -8.0610  -7.8574  -7.8561  -7.8560  -7.8552  -7.8501  -7.8498  -7.8491
    -7.8485  -7.7278  -7.4678  -7.4670  -7.4664  -7.4659  -7.3208  -7.3206
    -7.1632  -7.1623  -7.1617  -7.1613  -7.0284  -7.0281  -7.0185  -7.0178
    -7.0176  -7.0173  -6.9049  -6.9043  -6.9037  -6.9033  -6.8626  -6.8017
    -6.8010  -6.8007  -6.8006  -6.7554  -6.7453  -6.7449  -6.7442  -6.7440
    -6.5573  -6.5564  -6.5557  -6.5550  -6.5407  -6.5394  -6.5388  -6.5387
    -6.5349  -6.5349  -6.5342  -6.5334  -6.5061  -6.5056  -6.5049  -6.5043
    -6.5034  -6.5026  -6.5024  -6.5017  -6.4747  -6.4739  -6.4737  -6.4730
    -6.4330  -6.4325   0.3951   0.4252   0.7548   0.7555   0.7556   0.7560
     0.9530   1.2348   1.2351   1.2356   1.2365   1.3270   1.3275   1.3281
     1.3297   1.3607   1.3613   1.3619   1.3632   1.3904   1.3913   1.3916
     1.3921   1.8774   1.8777   1.8783   1.8785   1.8787   1.8791   1.8794
     1.8798   1.9337   2.1886   2.1893   2.1897   2.1910   2.6561   2.6567
     2.6570   2.6579   3.3895   3.3901   3.3905   3.3911   3.4927   3.4929
     3.4934   3.4941   3.6188   3.6189   3.6195   3.6201   3.8608   3.8613
     3.8619   3.8626   4.0518   4.0523   4.0528   4.0535   4.2306   4.2314
     4.2319   4.2319   4.2763   4.2765   4.2770   4.2776   4.3365   4.3367
     4.3373   4.3377   4.5199   4.5206   4.5208   4.5215   4.7109   4.7116
     4.7118   4.7120   4.9004   4.9012   4.9013   4.9018   4.9795   4.9797
     5.0479   5.0962   5.0969   5.0973   5.0975   5.1015   5.1016   5.1022
     5.1023   5.1083   5.1290   5.1293   5.1300   5.1301   5.2221   5.3530
     5.3539   5.4828   5.5454   5.5461   5.5466   5.5472   5.7150   5.7158
     5.7822   5.7879   5.7884   5.7890   5.7892   5.8235   5.8242   5.8244
     5.8249   5.9363   5.9365   5.9369   5.9373   5.9818   5.9827   5.9830
     5.9835   6.1909   6.1915   6.1921   6.1928   6.3141   6.3667   6.3672
     6.3677   6.3680   6.4323   6.4327   6.4328   6.4331   6.6293   6.6296
     6.6299   6.6300   6.6757   6.7065   6.7069   6.7081   6.7084   6.7310
     6.7314   6.7319   6.7322   6.7592   6.7758   6.7766   6.7773   6.7774
     6.8110   6.8111   6.8330   6.8339   6.9104   6.9112   6.9119   6.9129
     6.9257   7.1575   7.1580   7.1583   7.1587   7.1604   7.1608   7.1615
     7.1618   7.3741   7.4118   7.4119   7.4124   7.4125   7.4585   7.4591
     7.4594   7.4594   7.7838   7.7842   7.7846   7.7849   7.7959   7.7965
     7.7966   7.7969   7.8628   7.8634   7.8638   7.8643   7.9308   7.9312
     7.9314   7.9317   7.9477   7.9479   7.9693   7.9964   7.9967   7.9972
     7.9977   8.1109   8.1111   8.1114   8.1120   8.2331   8.2331   8.2338
     8.2341   8.2341   8.2342   8.2348   8.2351   8.2456   8.2462   8.2464
     8.2468   8.3089   8.3091   8.3093   8.3096   8.4069   8.4071   8.4073
     8.4075   8.4949   8.4956   8.4957   8.4960   8.5762   8.5764   8.5770
     8.5775   8.6535   8.6540   8.6543   8.6549   8.7454   8.7639   8.7639
     8.8633   8.8642   8.8647   8.8653   8.8777   8.8780   8.8782   8.8788
     8.8973   8.8977   8.8982   8.8986   8.9863   8.9866   8.9871   8.9873
     8.9906   8.9913   8.9918   8.9923   8.9987   8.9990   8.9993   8.9997
     9.0333   9.0339   9.0339   9.0340   9.1436   9.1441   9.1448   9.1451
     9.1725   9.1730   9.1732   9.1738   9.3015   9.3020   9.3025   9.3028
     9.3062   9.3066   9.3071   9.3075   9.3677   9.3681   9.3684   9.3687
     9.3688   9.3693   9.3696   9.3699   9.4962   9.4962   9.6082   9.6087
     9.6090   9.6094   9.6808   9.6809   9.6872   9.6880   9.6883   9.6887
     9.7468   9.7475   9.7478   9.7482   9.8131   9.8142   9.8149   9.8157
     9.9179   9.9191   9.9197   9.9207  10.0258  10.3767

          k = 0.3333 0.0000-0.3248 ( 83068 PWs)   bands (ev):

   -14.2757 -14.2747 -14.2730 -14.2728 -14.2723 -14.2719 -14.2595 -14.2573
   -14.2512 -14.2499 -14.2496 -14.2494 -14.2465 -14.2462 -14.2454 -14.2453
   -14.2449 -14.2435 -14.2419 -14.2400 -14.2235 -14.2229 -14.2211 -14.2209
   -14.1969 -14.1951 -14.1867 -14.1864 -14.1857 -14.1856 -14.1835 -14.1834
   -14.1812 -14.1811 -14.1794 -14.1790 -14.1652 -14.1651 -14.1458 -14.1452
   -14.1434 -14.1433 -14.1414 -14.1413 -14.1410 -14.1408 -14.1304 -14.1302
   -14.1286 -14.1283 -14.1115 -14.1098 -14.1060 -14.1040 -14.0882 -14.0863
   -14.0792 -14.0787 -14.0777 -14.0768 -14.0763 -14.0760 -14.0758 -14.0755
   -14.0479 -14.0478 -14.0362 -14.0361 -14.0345 -14.0342 -14.0332 -14.0313
   -14.0293 -14.0277 -14.0244 -14.0218 -14.0212 -14.0207 -14.0207 -14.0205
   -14.0200 -14.0196 -14.0196 -14.0194 -14.0192 -14.0186 -14.0182 -14.0181
   -14.0179 -14.0178 -14.0177 -14.0175 -14.0173 -14.0170 -14.0168 -14.0166
   -14.0165 -14.0154 -14.0148 -14.0147 -13.9994 -13.9975 -13.9851 -13.9850
   -13.9821 -13.9821 -13.9811 -13.9805 -13.9781 -13.9759 -13.9718 -13.9711
   -13.9695 -13.9691 -13.9641 -13.9640 -13.9633 -13.9631 -13.9602 -13.9600
   -13.9571 -13.9547 -13.9530 -13.9524 -13.9511 -13.9504 -13.9500 -13.9491
   -13.9488 -13.9486 -13.9484 -13.9480 -13.9476 -13.9472 -13.9467 -13.9466
   -13.9465 -13.9462 -13.9450 -13.9447 -13.9441 -13.9437 -13.9432 -13.9431
   -13.9428 -13.9426 -13.9424 -13.9421 -13.9419 -13.9414 -13.9404 -13.9401
   -13.9390 -13.9376 -13.9371 -13.9367 -13.9349 -13.9348 -13.9334 -13.9322
   -13.9316 -13.9305 -13.9210 -13.9187 -13.9174 -13.9172 -13.9170 -13.9164
   -13.9163 -13.9161 -13.9156 -13.9152 -13.9150 -13.9148 -13.9145 -13.9137
   -13.9136 -13.9121 -13.9119 -13.9114 -13.9106 -13.9102 -13.9083 -13.9081
   -13.9073 -13.9063 -13.9060 -13.9052 -13.9048 -13.9047 -13.9032 -13.9027
   -13.9022 -13.9019 -13.9016 -13.9012 -13.9008 -13.9004 -13.9001 -13.8999
   -13.8995 -13.8990 -13.8986 -13.8984 -13.8979 -13.8977 -13.8970 -13.8964
   -13.8963 -13.8960 -13.8957 -13.8949 -13.8945 -13.8944 -13.8942 -13.8938
   -13.8936 -13.8934 -13.8932 -13.8930 -13.8927 -13.8924 -13.8923 -13.8919
   -13.8918 -13.8916 -13.8913 -13.8911 -13.8909 -13.8907 -13.8905 -13.8902
   -13.8902 -13.8898 -13.8897 -13.8894 -13.8892 -13.8891 -13.8890 -13.8886
   -13.8885 -13.8883 -13.8882 -13.8881 -13.8880 -13.8878 -13.8877 -13.8876
   -13.8874 -13.8871 -13.8870 -13.8869 -13.8869 -13.8868 -13.8866 -13.8863
   -13.8862 -13.8861 -13.8858 -13.8857 -13.8855 -13.8854 -13.8849 -13.8845
   -13.8843 -13.8839 -13.8832 -13.8828 -13.8820 -13.8806 -10.0172 -10.0153
    -9.6575  -9.6556  -9.5559  -9.5556  -9.5540  -9.5536  -9.2226  -9.2223
    -9.2207  -9.2203  -9.1246  -9.1239  -8.8135  -8.8128  -8.7721  -8.7711
    -8.7709  -8.7707  -8.5160  -8.5150  -8.5149  -8.5145  -8.4025  -8.4005
    -8.3893  -8.3888  -8.3877  -8.3867  -8.1933  -8.1927  -8.1912  -8.1907
    -8.1435  -8.1431  -8.1419  -8.1410  -8.0371  -8.0367  -7.9233  -7.9228
    -7.9224  -7.9220  -7.8475  -7.8468  -7.8455  -7.8448  -7.7565  -7.7545
    -7.7441  -7.7422  -7.5160  -7.5146  -7.2763  -7.2762  -7.2758  -7.2754
    -7.2384  -7.2364  -7.2199  -7.2192  -7.2179  -7.2171  -7.0273  -7.0270
    -7.0268  -7.0263  -6.9699  -6.9692  -6.9680  -6.9672  -6.9655  -6.9635
    -6.7468  -6.7464  -6.6328  -6.6319  -6.6304  -6.6299  -6.6119  -6.6116
    -6.5926  -6.5916  -6.5858  -6.5841  -6.5550  -6.5545  -6.5541  -6.5535
    -6.5480  -6.5474  -6.5461  -6.5456  -6.5137  -6.5130  -6.5112  -6.5109
    -6.5059  -6.5053  -6.4966  -6.4959  -6.4943  -6.4937  -6.4612  -6.4591
    -6.4450  -6.4427   0.6508   0.6529   0.6605   0.6630   0.8179   0.8184
     0.8188   0.8195   1.0503   1.0505   1.0513   1.0518   1.0725   1.0744
     1.5125   1.5132   1.5147   1.5155   1.5683   1.5692   1.5706   1.5720
     1.7332   1.7336   1.7788   1.7796   1.7798   1.7804   1.9158   1.9177
     2.2762   2.2767   2.2771   2.2778   2.3166   2.3170   2.3956   2.3959
     2.9141   2.9144   2.9147   2.9157   3.1325   3.1331   3.1334   3.1340
     3.4981   3.4987   3.5000   3.5006   3.6176   3.6182   3.8327   3.8334
     3.8337   3.8341   4.1899   4.1903   4.1907   4.1909   4.2260   4.2264
     4.4533   4.4538   4.4539   4.4546   4.5340   4.5351   4.5875   4.5886
     4.5987   4.5993   4.6005   4.6014   4.6760   4.6768   4.6772   4.6775
     4.6788   4.6803   4.7876   4.7886   4.8175   4.8179   4.9789   4.9791
     4.9796   4.9799   5.0294   5.0301   5.0818   5.0821   5.1144   5.1146
     5.1322   5.1335   5.2433   5.2438   5.2769   5.2776   5.2788   5.2794
     5.3331   5.3337   5.3338   5.3343   5.4310   5.4316   5.6275   5.6277
     5.6280   5.6287   5.6932   5.6946   5.6947   5.6949   5.7848   5.7849
     5.7852   5.7857   5.9528   5.9535   5.9547   5.9556   5.9976   5.9980
     6.0701   6.0704   6.0708   6.0709   6.2135   6.2138   6.2152   6.2153
     6.3707   6.3709   6.4678   6.4685   6.4697   6.4703   6.5049   6.5057
     6.5379   6.5393   6.5441   6.5445   6.5455   6.5459   6.5551   6.5564
     6.5710   6.5713   6.7666   6.7674   6.8799   6.8807   6.8809   6.8811
     7.1037   7.1038   7.1055   7.1059   7.1302   7.1304   7.1312   7.1321
     7.2721   7.2726   7.3087   7.3091   7.3997   7.4010   7.4090   7.4094
     7.4097   7.4103   7.4132   7.4147   7.4426   7.4429   7.4431   7.4439
     7.5294   7.5296   7.5303   7.5306   7.5473   7.5480   7.6600   7.6616
     7.7513   7.7513   7.7530   7.7530   7.8346   7.8349   7.8893   7.8894
     7.8897   7.8909   7.9023   7.9028   8.0050   8.0052   8.0063   8.0067
     8.0262   8.0284   8.0602   8.0615   8.1319   8.1337   8.1497   8.1502
     8.1504   8.1506   8.2196   8.2197   8.2202   8.2209   8.2793   8.2796
     8.3485   8.3489   8.3793   8.3801   8.3803   8.3812   8.4465   8.4471
     8.4477   8.4482   8.4643   8.4646   8.5502   8.5503   8.5515   8.5521
     8.7070   8.7071   8.7075   8.7077   8.7103   8.7108   8.7120   8.7126
     8.7498   8.7503   8.7516   8.7538   8.8674   8.8677   8.8687   8.8695
     8.8696   8.8700   8.8701   8.8705   8.9266   8.9269   8.9272   8.9275
     8.9421   8.9424   9.0114   9.0119   9.0123   9.0124   9.0425   9.0428
     9.0523   9.0527   9.0534   9.0536   9.2342   9.2344   9.2392   9.2397
     9.2410   9.2414   9.3156   9.3175   9.3449   9.3454   9.3455   9.3457
     9.3772   9.3782   9.3792   9.3794   9.3797   9.3812   9.3971   9.3977
     9.3979   9.3981   9.4531   9.4554   9.4775   9.4781   9.4857   9.4861
     9.4862   9.4866   9.4992   9.4999   9.5010   9.5014   9.6312   9.6317
     9.6568   9.6591   9.8241   9.8248   9.8264   9.8269   9.8799   9.8807
     9.8821   9.8828   9.9956   9.9979  10.2541  10.2566

          k = 0.3333-0.3248-0.3248 ( 83032 PWs)   bands (ev):

   -14.2697 -14.2678 -14.2670 -14.2669 -14.2663 -14.2662 -14.2656 -14.2652
   -14.2625 -14.2624 -14.2618 -14.2617 -14.2504 -14.2491 -14.2481 -14.2470
   -14.2420 -14.2417 -14.2332 -14.2326 -14.2320 -14.2317 -14.1956 -14.1946
   -14.1937 -14.1927 -14.1876 -14.1871 -14.1835 -14.1830 -14.1822 -14.1821
   -14.1814 -14.1812 -14.1805 -14.1800 -14.1590 -14.1585 -14.1577 -14.1576
   -14.1569 -14.1567 -14.1561 -14.1559 -14.1200 -14.1199 -14.1179 -14.1167
   -14.1158 -14.1147 -14.1047 -14.1043 -14.1041 -14.1038 -14.0983 -14.0975
   -14.0967 -14.0965 -14.0932 -14.0931 -14.0561 -14.0553 -14.0547 -14.0546
   -14.0539 -14.0537 -14.0532 -14.0528 -14.0372 -14.0367 -14.0359 -14.0349
   -14.0349 -14.0338 -14.0303 -14.0297 -14.0288 -14.0278 -14.0235 -14.0207
   -14.0199 -14.0193 -14.0187 -14.0186 -14.0183 -14.0180 -14.0176 -14.0175
   -14.0171 -14.0168 -14.0166 -14.0164 -14.0157 -14.0148 -14.0143 -14.0140
   -13.9947 -13.9942 -13.9931 -13.9930 -13.9924 -13.9921 -13.9916 -13.9913
   -13.9891 -13.9890 -13.9883 -13.9871 -13.9769 -13.9753 -13.9744 -13.9735
   -13.9666 -13.9660 -13.9606 -13.9599 -13.9590 -13.9590 -13.9584 -13.9581
   -13.9577 -13.9571 -13.9571 -13.9561 -13.9552 -13.9543 -13.9510 -13.9492
   -13.9476 -13.9471 -13.9466 -13.9462 -13.9452 -13.9452 -13.9451 -13.9450
   -13.9447 -13.9445 -13.9444 -13.9442 -13.9440 -13.9437 -13.9435 -13.9435
   -13.9430 -13.9425 -13.9423 -13.9422 -13.9421 -13.9417 -13.9410 -13.9402
   -13.9397 -13.9393 -13.9389 -13.9387 -13.9379 -13.9367 -13.9353 -13.9346
   -13.9337 -13.9324 -13.9217 -13.9200 -13.9192 -13.9188 -13.9164 -13.9161
   -13.9150 -13.9148 -13.9143 -13.9141 -13.9139 -13.9135 -13.9122 -13.9119
   -13.9118 -13.9112 -13.9104 -13.9102 -13.9101 -13.9095 -13.9093 -13.9084
   -13.9051 -13.9034 -13.9028 -13.9020 -13.9016 -13.9012 -13.9009 -13.9008
   -13.9003 -13.9003 -13.9002 -13.9000 -13.8997 -13.8996 -13.8994 -13.8994
   -13.8993 -13.8991 -13.8987 -13.8983 -13.8977 -13.8971 -13.8969 -13.8965
   -13.8961 -13.8960 -13.8959 -13.8956 -13.8953 -13.8945 -13.8939 -13.8934
   -13.8932 -13.8932 -13.8931 -13.8929 -13.8927 -13.8925 -13.8925 -13.8923
   -13.8922 -13.8919 -13.8917 -13.8917 -13.8916 -13.8914 -13.8912 -13.8911
   -13.8907 -13.8906 -13.8905 -13.8901 -13.8899 -13.8894 -13.8894 -13.8892
   -13.8891 -13.8889 -13.8886 -13.8886 -13.8885 -13.8884 -13.8882 -13.8881
   -13.8877 -13.8877 -13.8874 -13.8871 -13.8870 -13.8869 -13.8866 -13.8862
   -13.8861 -13.8858 -13.8854 -13.8853 -13.8849 -13.8849 -13.8845 -13.8844
   -13.8842 -13.8840 -13.8836 -13.8827 -13.8821 -13.8810  -9.8996  -9.8984
    -9.8974  -9.8968  -9.5464  -9.5451  -9.5441  -9.5435  -9.0258  -9.0256
    -9.0253  -9.0247  -9.0244  -9.0238  -9.0235  -9.0229  -8.7280  -8.7276
    -8.7275  -8.7268  -8.7265  -8.7259  -8.7257  -8.7250  -8.5886  -8.5878
    -8.3739  -8.3731  -8.3464  -8.3448  -8.3438  -8.3434  -8.0020  -8.0012
    -8.0009  -8.0002  -8.0000  -7.9994  -7.9992  -7.9983  -7.8819  -7.8814
    -7.8491  -7.8485  -7.8478  -7.8475  -7.7743  -7.7727  -7.7716  -7.7713
    -7.6507  -7.6500  -7.6493  -7.6490  -7.5148  -7.5143  -7.3710  -7.3703
    -7.3697  -7.3692  -7.2061  -7.2056  -7.0742  -7.0735  -7.0728  -7.0724
    -6.9087  -6.9077  -6.9071  -6.9067  -6.9062  -6.9059  -6.9052  -6.9046
    -6.7397  -6.7387  -6.7381  -6.7378  -6.7373  -6.7370  -6.7362  -6.7358
    -6.5742  -6.5737  -6.5378  -6.5364  -6.5357  -6.5346  -6.5227  -6.5215
    -6.5207  -6.5207  -6.5201  -6.5198  -6.5188  -6.5184  -6.5133  -6.5126
    -6.5119  -6.5107  -6.4719  -6.4708  -6.4702  -6.4700  -6.4689  -6.4687
    -6.4676  -6.4668   0.6179   0.6185   0.8847   0.8857   0.8866   0.8882
     0.9017   0.9028   0.9036   0.9062   1.0139   1.0148   1.0156   1.0161
     1.3352   1.3356   1.3357   1.3364   1.3365   1.3370   1.3373   1.3382
     1.9813   1.9828   1.9833   1.9837   2.2636   2.2643   2.3381   2.3388
     2.3395   2.3395   2.3402   2.3403   2.3409   2.3418   2.5037   2.5045
     2.5052   2.5052   2.5059   2.5062   2.5068   2.5084   3.1434   3.1441
     3.8613   3.8618   3.8623   3.8626   4.0353   4.0359   4.0362   4.0367
     4.0717   4.0719   4.0724   4.0726   4.0727   4.0734   4.0735   4.0740
     4.0909   4.0912   4.2671   4.2675   4.2677   4.2683   4.5651   4.5654
     4.5657   4.5663   4.5666   4.5668   4.5672   4.5678   4.7113   4.7114
     4.7120   4.7125   4.7844   4.7849   4.7851   4.7857   4.8017   4.8030
     4.8041   4.8042   5.0696   5.0709   5.0716   5.0719   5.0723   5.0724
     5.0727   5.0730   5.3757   5.3763   5.3764   5.3775   5.4970   5.4975
     5.4980   5.4985   5.4989   5.4990   5.4996   5.5002   5.6744   5.6753
     5.7143   5.7146   5.7687   5.7694   5.7695   5.7706   5.8162   5.8168
     5.8171   5.8175   5.8717   5.8731   5.8737   5.8740   6.0362   6.0365
     6.0370   6.0372   6.2902   6.2911   6.3070   6.3074   6.3079   6.3082
     6.3750   6.3755   6.3760   6.3764   6.3768   6.3770   6.3773   6.3780
     6.3985   6.3996   6.4006   6.4008   6.6754   6.6764   6.6774   6.6780
     6.7376   6.7380   6.7712   6.7719   6.8419   6.8427   6.8433   6.8444
     6.8867   6.8871   6.8874   6.8882   6.9156   6.9157   6.9548   6.9557
     7.1693   7.1695   7.1701   7.1705   7.1705   7.1710   7.1712   7.1714
     7.2554   7.2558   7.4622   7.4625   7.4634   7.4635   7.7186   7.7192
     7.7194   7.7199   7.7202   7.7206   7.7213   7.7219   7.8388   7.8397
     7.8406   7.8412   7.9647   7.9652   7.9657   7.9663   7.9962   7.9963
     7.9968   7.9977   8.0376   8.0378   8.0383   8.0388   8.0393   8.0393
     8.0399   8.0404   8.1088   8.1092   8.1096   8.1098   8.1102   8.1103
     8.1113   8.1117   8.1440   8.1443   8.1451   8.1456   8.2142   8.2146
     8.2146   8.2154   8.3040   8.3049   8.3058   8.3069   8.5081   8.5088
     8.5093   8.5096   8.5099   8.5101   8.5107   8.5111   8.5177   8.5178
     8.5184   8.5186   8.5188   8.5191   8.5196   8.5198   8.7243   8.7245
     8.7252   8.7258   8.7998   8.7999   8.8004   8.8011   8.9305   8.9309
     8.9318   8.9321   8.9325   8.9327   8.9332   8.9336   9.0027   9.0027
     9.0538   9.0548   9.0554   9.0557   9.0862   9.0867   9.0869   9.0876
     9.1092   9.1097   9.2020   9.2025   9.2037   9.2040   9.2432   9.2434
     9.2441   9.2446   9.2575   9.2584   9.2590   9.2593   9.2597   9.2600
     9.2608   9.2609   9.2934   9.2936   9.3768   9.3771   9.4448   9.4450
     9.4458   9.4461   9.5153   9.5162   9.5169   9.5173   9.5176   9.5182
     9.5187   9.5192   9.5774   9.5775   9.5784   9.5788   9.5860   9.5867
     9.5874   9.5877   9.5881   9.5887   9.5890   9.5895   9.9728   9.9743
     9.9753   9.9764  10.1624  10.1641  10.1650  10.1662

          k = 0.0000-0.3248 0.0000 ( 83134 PWs)   bands (ev):

   -14.2826 -14.2817 -14.2487 -14.2478 -14.2475 -14.2470 -14.2281 -14.2264
   -14.2260 -14.2258 -14.2254 -14.2253 -14.2251 -14.2248 -14.2244 -14.2243
   -14.2241 -14.2239 -14.2136 -14.2131 -14.2112 -14.2111 -14.2032 -14.2031
   -14.2021 -14.2009 -14.2005 -14.2004 -14.1987 -14.1980 -14.1975 -14.1975
   -14.1965 -14.1964 -14.1963 -14.1962 -14.1957 -14.1956 -14.1952 -14.1948
   -14.1947 -14.1946 -14.1945 -14.1940 -14.1901 -14.1901 -14.1894 -14.1893
   -14.1708 -14.1700 -14.1696 -14.1692 -14.1314 -14.1306 -14.0851 -14.0848
   -14.0844 -14.0844 -14.0570 -14.0564 -14.0559 -14.0558 -14.0557 -14.0556
   -14.0552 -14.0551 -14.0482 -14.0477 -14.0475 -14.0475 -14.0462 -14.0461
   -14.0456 -14.0455 -14.0107 -14.0107 -14.0106 -14.0105 -13.9965 -13.9962
   -13.9959 -13.9959 -13.9955 -13.9955 -13.9949 -13.9945 -13.9926 -13.9899
   -13.9894 -13.9889 -13.9884 -13.9883 -13.9877 -13.9875 -13.9874 -13.9874
   -13.9866 -13.9865 -13.9861 -13.9859 -13.9857 -13.9853 -13.9850 -13.9849
   -13.9846 -13.9836 -13.9829 -13.9824 -13.9821 -13.9820 -13.9819 -13.9808
   -13.9791 -13.9782 -13.9725 -13.9718 -13.9703 -13.9696 -13.9678 -13.9673
   -13.9576 -13.9568 -13.9564 -13.9559 -13.9434 -13.9399 -13.9391 -13.9387
   -13.9380 -13.9379 -13.9376 -13.9375 -13.9371 -13.9370 -13.9368 -13.9368
   -13.9365 -13.9363 -13.9361 -13.9360 -13.9357 -13.9357 -13.9353 -13.9352
   -13.9350 -13.9349 -13.9348 -13.9348 -13.9347 -13.9346 -13.9340 -13.9339
   -13.9337 -13.9336 -13.9334 -13.9331 -13.9328 -13.9324 -13.9323 -13.9317
   -13.9309 -13.9297 -13.9248 -13.9219 -13.9211 -13.9207 -13.9206 -13.9204
   -13.9200 -13.9199 -13.9197 -13.9196 -13.9195 -13.9194 -13.9191 -13.9190
   -13.9187 -13.9186 -13.9182 -13.9181 -13.9175 -13.9172 -13.9159 -13.9153
   -13.9151 -13.9149 -13.9147 -13.9145 -13.9141 -13.9141 -13.9134 -13.9134
   -13.9126 -13.9126 -13.9122 -13.9120 -13.9115 -13.9114 -13.9103 -13.9097
   -13.9075 -13.9062 -13.9059 -13.9053 -13.9029 -13.9019 -13.9015 -13.9006
   -13.9003 -13.9002 -13.8996 -13.8995 -13.8985 -13.8979 -13.8963 -13.8963
   -13.8957 -13.8948 -13.8942 -13.8937 -13.8936 -13.8932 -13.8932 -13.8930
   -13.8930 -13.8930 -13.8929 -13.8928 -13.8926 -13.8925 -13.8922 -13.8918
   -13.8917 -13.8917 -13.8915 -13.8914 -13.8912 -13.8909 -13.8905 -13.8902
   -13.8897 -13.8896 -13.8889 -13.8887 -13.8885 -13.8882 -13.8880 -13.8873
   -13.8873 -13.8871 -13.8871 -13.8868 -13.8866 -13.8864 -13.8864 -13.8862
   -13.8862 -13.8860 -13.8860 -13.8858 -13.8855 -13.8855 -13.8852 -13.8846
   -13.8843 -13.8839 -13.8835 -13.8830 -13.8814 -13.8812 -10.1387 -10.1380
    -9.6716  -9.6712  -9.6709  -9.6706  -9.2366  -9.2361  -9.0911  -9.0909
    -9.0903  -9.0901  -8.8657  -8.8654  -8.8647  -8.8637  -8.7271  -8.7271
    -8.7262  -8.7258  -8.7258  -8.7257  -8.7256  -8.7252  -8.4845  -8.4832
    -8.4830  -8.4823  -8.3892  -8.3886  -8.3885  -8.3884  -8.1810  -8.1806
    -8.1798  -8.1798  -8.1791  -8.1786  -8.1781  -8.1778  -7.8814  -7.8802
    -7.8793  -7.8793  -7.8792  -7.8791  -7.8788  -7.8787  -7.8409  -7.8398
    -7.4117  -7.4109  -7.4105  -7.4105  -7.3736  -7.3727  -7.3717  -7.3712
    -7.3434  -7.3427  -7.3167  -7.3162  -7.3157  -7.3152  -6.8050  -6.8049
    -6.7407  -6.7402  -6.7398  -6.7396  -6.7386  -6.7382  -6.7378  -6.7373
    -6.6848  -6.6843  -6.6843  -6.6843  -6.6838  -6.6837  -6.6833  -6.6823
    -6.6732  -6.6725  -6.6720  -6.6711  -6.6465  -6.6462  -6.6458  -6.6451
    -6.5907  -6.5894  -6.5817  -6.5816  -6.5813  -6.5809  -6.5088  -6.5086
    -6.5086  -6.5081  -6.5012  -6.5009  -6.5008  -6.5005  -6.5005  -6.5002
    -6.4996  -6.4993   0.6604   0.6618   0.7086   0.7092   0.7096   0.7106
     1.2561   1.2565   1.2567   1.2573   1.2573   1.2575   1.2576   1.2589
     1.4054   1.4058   1.4061   1.4064   1.4073   1.4079   1.4080   1.4091
     1.5541   1.5548   1.5551   1.5567   2.1264   2.1273   2.1273   2.1280
     2.2555   2.2564   2.4265   2.4273   2.4279   2.4280   2.4281   2.4283
     2.4284   2.4293   3.0945   3.0953   3.0967   3.0974   3.2176   3.2186
     3.2189   3.2192   3.5681   3.5685   3.5690   3.5696   3.6749   3.6750
     3.6753   3.6754   3.9019   3.9023   3.9024   3.9030   3.9030   3.9034
     3.9036   3.9036   4.4047   4.4048   4.4051   4.4054   4.5706   4.5708
     4.8115   4.8115   4.8119   4.8119   4.8134   4.8137   4.8138   4.8143
     4.8612   4.8621   4.8622   4.8623   4.8625   4.8625   4.8627   4.8633
     5.2089   5.2089   5.2091   5.2092   5.2540   5.2541   5.2544   5.2544
     5.2549   5.2550   5.2550   5.2552   5.3818   5.3828   5.6190   5.6214
     5.6217   5.6218   5.6222   5.6222   5.6222   5.6229   5.6233   5.6234
     5.6236   5.6241   5.6405   5.6412   5.6412   5.6416   5.6420   5.6421
     5.6426   5.6427   5.6527   5.6529   5.6532   5.6537   5.7873   5.7877
     5.7879   5.7881   5.7882   5.7882   5.7887   5.7891   5.8571   5.8580
     5.9299   5.9308   5.9321   5.9327   6.2522   6.2533   6.2536   6.2539
     6.4398   6.4404   6.6483   6.6490   6.7091   6.7097   6.7856   6.7861
     6.7872   6.7884   6.9280   6.9282   6.9284   6.9296   7.1848   7.1864
     7.1866   7.1871   7.1920   7.1927   7.1930   7.1931   7.3352   7.3353
     7.3355   7.3359   7.3574   7.3579   7.3585   7.3585   7.3587   7.3587
     7.3594   7.3609   7.4249   7.4254   7.4258   7.4263   7.5543   7.5551
     7.5638   7.5641   7.5641   7.5645   7.6928   7.6934   7.6935   7.6938
     7.6938   7.6940   7.6941   7.6956   7.7598   7.7607   7.7612   7.7616
     8.0695   8.0696   8.0710   8.0713   8.1295   8.1296   8.1300   8.1302
     8.2146   8.2151   8.2156   8.2157   8.2159   8.2159   8.2159   8.2164
     8.2223   8.2224   8.2228   8.2233   8.4171   8.4172   8.4174   8.4177
     8.4181   8.4182   8.4186   8.4192   8.4958   8.4967   8.4979   8.4986
     8.5238   8.5243   8.5249   8.5250   8.5453   8.5460   8.6487   8.6490
     8.6903   8.6904   8.7133   8.7134   8.7140   8.7150   8.7354   8.7356
     8.7356   8.7359   8.9727   8.9730   8.9738   8.9739   8.9742   8.9742
     8.9743   8.9749   8.9827   8.9830   8.9834   8.9836   8.9837   8.9840
     8.9843   8.9843   9.0334   9.0344   9.0829   9.0831   9.0837   9.0837
     9.1721   9.1727   9.1730   9.1730   9.1880   9.1880   9.1885   9.1886
     9.1887   9.1890   9.1891   9.1894   9.2740   9.2750   9.2762   9.2765
     9.3403   9.3404   9.3406   9.3410   9.4215   9.4216   9.4219   9.4221
     9.4224   9.4227   9.4230   9.4232   9.5125   9.5125   9.5131   9.5132
     9.5196   9.5203   9.5208   9.5215   9.5675   9.5676   9.5685   9.5685
     9.5686   9.5687   9.5692   9.5695   9.6938   9.6945   9.7012   9.7019
     9.8153   9.8167   9.8169   9.8179  10.3164  10.3175

          k =-0.3333-0.3248 0.0000 ( 83068 PWs)   bands (ev):

   -14.2757 -14.2747 -14.2730 -14.2728 -14.2723 -14.2719 -14.2589 -14.2580
   -14.2515 -14.2503 -14.2489 -14.2487 -14.2469 -14.2465 -14.2460 -14.2454
   -14.2444 -14.2435 -14.2412 -14.2405 -14.2229 -14.2221 -14.2218 -14.2212
   -14.1965 -14.1957 -14.1877 -14.1872 -14.1857 -14.1851 -14.1831 -14.1825
   -14.1808 -14.1804 -14.1801 -14.1793 -14.1653 -14.1652 -14.1453 -14.1445
   -14.1442 -14.1438 -14.1417 -14.1414 -14.1408 -14.1404 -14.1299 -14.1297
   -14.1293 -14.1288 -14.1110 -14.1104 -14.1054 -14.1046 -14.0877 -14.0868
   -14.0788 -14.0781 -14.0778 -14.0771 -14.0765 -14.0764 -14.0758 -14.0755
   -14.0478 -14.0477 -14.0358 -14.0357 -14.0353 -14.0346 -14.0328 -14.0320
   -14.0287 -14.0280 -14.0244 -14.0217 -14.0210 -14.0209 -14.0205 -14.0201
   -14.0201 -14.0198 -14.0196 -14.0191 -14.0189 -14.0188 -14.0186 -14.0183
   -14.0182 -14.0181 -14.0177 -14.0175 -14.0172 -14.0169 -14.0167 -14.0166
   -14.0164 -14.0153 -14.0148 -14.0148 -13.9987 -13.9981 -13.9851 -13.9851
   -13.9820 -13.9818 -13.9813 -13.9806 -13.9778 -13.9766 -13.9712 -13.9702
   -13.9699 -13.9693 -13.9652 -13.9647 -13.9632 -13.9626 -13.9597 -13.9595
   -13.9570 -13.9554 -13.9525 -13.9514 -13.9511 -13.9503 -13.9500 -13.9498
   -13.9494 -13.9485 -13.9481 -13.9479 -13.9477 -13.9476 -13.9475 -13.9468
   -13.9461 -13.9456 -13.9449 -13.9447 -13.9438 -13.9437 -13.9434 -13.9432
   -13.9427 -13.9427 -13.9426 -13.9424 -13.9421 -13.9410 -13.9408 -13.9391
   -13.9391 -13.9378 -13.9368 -13.9363 -13.9359 -13.9353 -13.9328 -13.9321
   -13.9316 -13.9307 -13.9210 -13.9186 -13.9179 -13.9173 -13.9168 -13.9165
   -13.9161 -13.9160 -13.9158 -13.9153 -13.9151 -13.9147 -13.9142 -13.9136
   -13.9134 -13.9128 -13.9119 -13.9114 -13.9108 -13.9102 -13.9080 -13.9079
   -13.9069 -13.9067 -13.9061 -13.9056 -13.9049 -13.9045 -13.9033 -13.9025
   -13.9021 -13.9019 -13.9017 -13.9014 -13.9007 -13.9003 -13.9002 -13.8994
   -13.8992 -13.8991 -13.8988 -13.8984 -13.8978 -13.8975 -13.8973 -13.8963
   -13.8957 -13.8955 -13.8954 -13.8951 -13.8950 -13.8948 -13.8945 -13.8944
   -13.8940 -13.8935 -13.8934 -13.8930 -13.8930 -13.8927 -13.8923 -13.8920
   -13.8916 -13.8914 -13.8912 -13.8911 -13.8908 -13.8903 -13.8901 -13.8899
   -13.8898 -13.8895 -13.8894 -13.8892 -13.8892 -13.8890 -13.8888 -13.8887
   -13.8886 -13.8885 -13.8883 -13.8881 -13.8881 -13.8879 -13.8879 -13.8877
   -13.8876 -13.8872 -13.8871 -13.8870 -13.8868 -13.8868 -13.8865 -13.8864
   -13.8862 -13.8859 -13.8858 -13.8856 -13.8854 -13.8851 -13.8849 -13.8847
   -13.8847 -13.8841 -13.8833 -13.8826 -13.8820 -13.8805 -10.0166 -10.0159
    -9.6569  -9.6562  -9.5553  -9.5549  -9.5546  -9.5543  -9.2221  -9.2216
    -9.2213  -9.2210  -9.1245  -9.1241  -8.8134  -8.8129  -8.7721  -8.7718
    -8.7710  -8.7700  -8.5160  -8.5158  -8.5148  -8.5138  -8.4019  -8.4011
    -8.3893  -8.3880  -8.3879  -8.3872  -8.1928  -8.1920  -8.1917  -8.1914
    -8.1436  -8.1423  -8.1422  -8.1416  -8.0371  -8.0368  -7.9237  -7.9235
    -7.9220  -7.9212  -7.8472  -7.8461  -7.8458  -7.8456  -7.7558  -7.7551
    -7.7438  -7.7427  -7.5158  -7.5149  -7.2772  -7.2763  -7.2753  -7.2748
    -7.2377  -7.2370  -7.2192  -7.2188  -7.2183  -7.2178  -7.0282  -7.0273
    -7.0261  -7.0257  -6.9695  -6.9690  -6.9685  -6.9679  -6.9647  -6.9638
    -6.7466  -6.7465  -6.6322  -6.6316  -6.6311  -6.6302  -6.6117  -6.6116
    -6.5927  -6.5918  -6.5855  -6.5844  -6.5557  -6.5550  -6.5533  -6.5530
    -6.5473  -6.5472  -6.5467  -6.5458  -6.5133  -6.5124  -6.5121  -6.5113
    -6.5057  -6.5054  -6.4961  -6.4952  -6.4950  -6.4941  -6.4606  -6.4598
    -6.4443  -6.4434   0.6513   0.6523   0.6610   0.6625   0.8175   0.8179
     0.8192   0.8202   1.0504   1.0506   1.0511   1.0516   1.0732   1.0739
     1.5131   1.5138   1.5141   1.5150   1.5690   1.5696   1.5700   1.5715
     1.7332   1.7338   1.7789   1.7794   1.7797   1.7803   1.9163   1.9172
     2.2755   2.2762   2.2777   2.2784   2.3163   2.3171   2.3954   2.3960
     2.9132   2.9140   2.9155   2.9162   3.1327   3.1330   3.1335   3.1339
     3.4989   3.4991   3.4997   3.5002   3.6178   3.6179   3.8327   3.8334
     3.8337   3.8342   4.1894   4.1895   4.1913   4.1918   4.2260   4.2265
     4.4532   4.4536   4.4541   4.4546   4.5344   4.5346   4.5878   4.5885
     4.5990   4.5997   4.6003   4.6006   4.6764   4.6765   4.6773   4.6774
     4.6792   4.6793   4.7877   4.7885   4.8176   4.8178   4.9788   4.9793
     4.9795   4.9798   5.0295   5.0296   5.0818   5.0826   5.1141   5.1150
     5.1327   5.1332   5.2434   5.2437   5.2776   5.2779   5.2783   5.2786
     5.3328   5.3336   5.3340   5.3347   5.4310   5.4317   5.6269   5.6278
     5.6284   5.6291   5.6938   5.6943   5.6944   5.6948   5.7843   5.7851
     5.7854   5.7858   5.9532   5.9541   5.9544   5.9547   5.9975   5.9982
     6.0696   6.0700   6.0707   6.0716   6.2139   6.2145   6.2147   6.2148
     6.3705   6.3712   6.4687   6.4689   6.4694   6.4696   6.5053   6.5057
     6.5385   6.5390   6.5447   6.5450   6.5451   6.5455   6.5553   6.5561
     6.5710   6.5713   6.7669   6.7670   6.8800   6.8805   6.8807   6.8812
     7.1039   7.1047   7.1047   7.1052   7.1303   7.1307   7.1310   7.1317
     7.2723   7.2726   7.3087   7.3089   7.4001   7.4002   7.4091   7.4094
     7.4094   7.4105   7.4134   7.4143   7.4421   7.4428   7.4438   7.4440
     7.5293   7.5294   7.5302   7.5316   7.5474   7.5476   7.6604   7.6611
     7.7517   7.7519   7.7523   7.7527   7.8346   7.8352   7.8892   7.8893
     7.8899   7.8906   7.9022   7.9026   8.0052   8.0059   8.0060   8.0062
     8.0270   8.0278   8.0606   8.0608   8.1324   8.1330   8.1498   8.1501
     8.1504   8.1508   8.2198   8.2199   8.2201   8.2204   8.2791   8.2793
     8.3485   8.3489   8.3794   8.3802   8.3807   8.3810   8.4467   8.4472
     8.4476   8.4481   8.4643   8.4645   8.5509   8.5512   8.5515   8.5517
     8.7068   8.7072   8.7076   8.7078   8.7107   8.7114   8.7115   8.7121
     8.7499   8.7501   8.7523   8.7531   8.8675   8.8685   8.8686   8.8692
     8.8697   8.8698   8.8701   8.8702   8.9264   8.9266   8.9272   8.9275
     8.9423   8.9425   9.0107   9.0116   9.0123   9.0130   9.0425   9.0427
     9.0522   9.0527   9.0532   9.0538   9.2343   9.2344   9.2395   9.2403
     9.2405   9.2408   9.3160   9.3168   9.3444   9.3450   9.3460   9.3463
     9.3770   9.3783   9.3786   9.3791   9.3802   9.3815   9.3969   9.3976
     9.3981   9.3983   9.4540   9.4547   9.4774   9.4780   9.4857   9.4861
     9.4866   9.4869   9.4993   9.5000   9.5005   9.5012   9.6314   9.6320
     9.6576   9.6583   9.8243   9.8254   9.8256   9.8264   9.8800   9.8812
     9.8814   9.8823   9.9964   9.9972  10.2550  10.2559

     highest occupied level (ev):    10.4931

!    total energy              =  -13225.90721183 Ry
     estimated scf accuracy    <          3.2E-09 Ry

     The total energy is the sum of the following terms:
     one-electron contribution =   -4400.41948424 Ry
     hartree contribution      =    3316.32244549 Ry
     xc contribution           =   -3278.83967372 Ry
     ewald contribution        =   -8862.97049936 Ry

     convergence has been achieved in  14 iterations

     Forces acting on atoms (cartesian axes, Ry/au):

     atom    1 type  1   force =     0.00004074    0.00044086   -0.00092418
     atom    2 type  1   force =     0.00034244   -0.00004771   -0.00017938
     atom    3 type  1   force =    -0.00026326   -0.00004843   -0.00017995
     atom    4 type  1   force =     0.00004067    0.00017400   -0.00014100
     atom    5 type  1   force =     0.00003456    0.00006268   -0.00007722
     atom    6 type  1   force =     0.00004576    0.00006325   -0.00007669
     atom    7 type  1   force =     0.00003925   -0.00001586   -0.00003226
     atom    8 type  1   force =     0.00003931   -0.00001083   -0.00002816
     atom    9 type  1   force =     0.00004106   -0.00001083   -0.00002774
     atom   10 type  1   force =     0.00004051   -0.00003046    0.00016166
     atom   11 type  1   force =     0.00004491   -0.00001977    0.00013834
     atom   12 type  1   force =     0.00003537   -0.00001922    0.00013828
     atom   13 type  1   force =     0.00004031    0.00002236    0.00010793
     atom   14 type  1   force =     0.00004381    0.00002050    0.00009755
     atom   15 type  1   force =     0.00003807    0.00002077    0.00009758
     atom   16 type  1   force =     0.00004094   -0.00000136    0.00008546
     atom   17 type  1   force =     0.00003969    0.00000217    0.00008119
     atom   18 type  1   force =     0.00004052    0.00000184    0.00008011
     atom   19 type  1   force =     0.00003995    0.00027298    0.00024950
     atom   20 type  1   force =    -0.00020488    0.00019149    0.00010660
     atom   21 type  1   force =     0.00028447    0.00019190    0.00010702
     atom   22 type  1   force =     0.00003959   -0.00044023    0.00048241
     atom   23 type  1   force =    -0.00005383   -0.00002236    0.00005264
     atom   24 type  1   force =     0.00013534   -0.00002227    0.00005214
     atom   25 type  1   force =     0.00004036    0.00002466    0.00002537
     atom   26 type  1   force =     0.00003666    0.00002046    0.00002712
     atom   27 type  1   force =     0.00004303    0.00001997    0.00002791
     atom   28 type  1   force =    -0.00002511   -0.00007714   -0.00025515
     atom   29 type  1   force =    -0.00008690   -0.00007677   -0.00025565
     atom   30 type  1   force =    -0.00005642    0.00000777   -0.00011553
     atom   31 type  1   force =    -0.00048198    0.00075072   -0.00131074
     atom   32 type  1   force =     0.00036750    0.00074959   -0.00130924
     atom   33 type  1   force =    -0.00005651    0.00004166   -0.00016939
     atom   34 type  1   force =    -0.00004588   -0.00005002   -0.00009818
     atom   35 type  1   force =    -0.00006681   -0.00005057   -0.00009767
     atom   36 type  1   force =    -0.00005716   -0.00000139   -0.00005762
     atom   37 type  1   force =    -0.00007830   -0.00007858    0.00006763
     atom   38 type  1   force =    -0.00003516   -0.00007786    0.00006788
     atom   39 type  1   force =    -0.00005612   -0.00004781    0.00005034
     atom   40 type  1   force =    -0.00009670    0.00025399    0.00026476
     atom   41 type  1   force =    -0.00001697    0.00025381    0.00026401
     atom   42 type  1   force =    -0.00005691    0.00007001    0.00004720
     atom   43 type  1   force =    -0.00005735    0.00002964   -0.00000085
     atom   44 type  1   force =    -0.00005719    0.00002997   -0.00000072
     atom   45 type  1   force =    -0.00005632    0.00003190    0.00000363
     atom   46 type  1   force =    -0.00004257    0.00007086    0.00013175
     atom   47 type  1   force =    -0.00006990    0.00007080    0.00013187
     atom   48 type  1   force =    -0.00005724    0.00003296    0.00009085
     atom   49 type  1   force =    -0.00004264    0.00002552    0.00020307
     atom   50 type  1   force =    -0.00007116    0.00002471    0.00020344
     atom   51 type  1   force =    -0.00005738   -0.00001031    0.00013658
     atom   52 type  1   force =    -0.00004971    0.00000184    0.00008535
     atom   53 type  1   force =    -0.00006449    0.00000311    0.00008536
     atom   54 type  1   force =    -0.00005687    0.00000812    0.00007719
     atom   55 type  2   force =     0.00054268   -0.00087163   -0.00152323
     atom   56 type  2   force =    -0.00055379   -0.00087161   -0.00152321
     atom   57 type  2   force =    -0.00000549   -0.00097911   -0.00094677
     atom   58 type  2   force =    -0.00000251   -0.00091303   -0.00093744
     atom   59 type  2   force =    -0.00001427   -0.00091291   -0.00093729
     atom   60 type  2   force =    -0.00000846   -0.00092359   -0.00095034
     atom   61 type  2   force =    -0.00000215   -0.00060117   -0.00092958
     atom   62 type  2   force =    -0.00001018   -0.00060124   -0.00092964
     atom   63 type  2   force =    -0.00000625   -0.00060579   -0.00092768
     atom   64 type  2   force =    -0.00000905   -0.00099803   -0.00098600
     atom   65 type  2   force =    -0.00000781   -0.00099795   -0.00098597
     atom   66 type  2   force =    -0.00000841   -0.00099911   -0.00098669
     atom   67 type  2   force =    -0.00001317   -0.00090915   -0.00093414
     atom   68 type  2   force =    -0.00000903   -0.00090917   -0.00093415
     atom   69 type  2   force =    -0.00001118   -0.00090821   -0.00092690
     atom   70 type  2   force =    -0.00001016   -0.00065201   -0.00093058
     atom   71 type  2   force =    -0.00000794   -0.00065207   -0.00093059
     atom   72 type  2   force =    -0.00000897   -0.00065076   -0.00092950
     atom   73 type  2   force =    -0.00055043   -0.00125246   -0.00119118
     atom   74 type  2   force =     0.00053803   -0.00125234   -0.00119113
     atom   75 type  2   force =    -0.00000618   -0.00096312   -0.00061014
     atom   76 type  2   force =    -0.00011023   -0.00078059   -0.00061818
     atom   77 type  2   force =     0.00009225   -0.00078058   -0.00061814
     atom   78 type  2   force =    -0.00000908   -0.00087900   -0.00063157
     atom   79 type  2   force =    -0.00001266   -0.00062070   -0.00060630
     atom   80 type  2   force =    -0.00000134   -0.00062068   -0.00060631
     atom   81 type  2   force =    -0.00000698   -0.00061659   -0.00060418
     atom   82 type  2   force =     0.00001679   -0.00298534    0.00536982
     atom   83 type  2   force =    -0.00006812    0.00060177   -0.00063032
     atom   84 type  2   force =     0.00009938    0.00060175   -0.00063025
     atom   85 type  2   force =     0.00001525    0.00099885   -0.00078827
     atom   86 type  2   force =     0.00001993    0.00098282   -0.00079361
     atom   87 type  2   force =     0.00001059    0.00098279   -0.00079368
     atom   88 type  2   force =     0.00001292    0.00080879   -0.00077106
     atom   89 type  2   force =    -0.00001783    0.00081828   -0.00077644
     atom   90 type  2   force =     0.00004366    0.00081835   -0.00077648
     atom   91 type  2   force =     0.00001756    0.00071861   -0.00113607
     atom   92 type  2   force =    -0.00003612    0.00070219   -0.00112170
     atom   93 type  2   force =     0.00007119    0.00070223   -0.00112172
     atom   94 type  2   force =     0.00001742    0.00098822   -0.00105297
     atom   95 type  2   force =     0.00001875    0.00099044   -0.00105593
     atom   96 type  2   force =     0.00001594    0.00099049   -0.00105595
     atom   97 type  2   force =     0.00001503    0.00085433   -0.00109741
     atom   98 type  2   force =     0.00001501    0.00084325   -0.00109053
     atom   99 type  2   force =     0.00001503    0.00084325   -0.00109047
     atom  100 type  2   force =     0.00001828    0.00072864   -0.00087733
     atom  101 type  2   force =     0.00006881    0.00073842   -0.00086416
     atom  102 type  2   force =    -0.00003226    0.00073840   -0.00086419
     atom  103 type  2   force =     0.00001799    0.00102311   -0.00082567
     atom  104 type  2   force =     0.00003177    0.00101184   -0.00081823
     atom  105 type  2   force =     0.00000401    0.00101191   -0.00081826
     atom  106 type  2   force =     0.00001572    0.00075745   -0.00078238
     atom  107 type  2   force =     0.00002433    0.00076926   -0.00078521
     atom  108 type  2   force =     0.00000723    0.00076928   -0.00078523
     atom  109 type  2   force =     0.00021162    0.00095361    0.00080551
     atom  110 type  2   force =    -0.00022506    0.00095353    0.00080545
     atom  111 type  2   force =    -0.00000672    0.00066686    0.00070480
     atom  112 type  2   force =     0.00004328    0.00079359    0.00082374
     atom  113 type  2   force =    -0.00006137    0.00079360    0.00082373
     atom  114 type  2   force =    -0.00000892    0.00090402    0.00072260
     atom  115 type  2   force =    -0.00000897    0.00102609    0.00070511
     atom  116 type  2   force =    -0.00000351    0.00102617    0.00070518
     atom  117 type  2   force =    -0.00000628    0.00102699    0.00070341
     atom  118 type  2   force =    -0.00000375    0.00066459    0.00084535
     atom  119 type  2   force =    -0.00001427    0.00066456    0.00084535
     atom  120 type  2   force =    -0.00000893    0.00066074    0.00085510
     atom  121 type  2   force =    -0.00000307    0.00085325    0.00083555
     atom  122 type  2   force =    -0.00001948    0.00085327    0.00083557
     atom  123 type  2   force =    -0.00001132    0.00085781    0.00084681
     atom  124 type  2   force =    -0.00000911    0.00100646    0.00089294
     atom  125 type  2   force =    -0.00000818    0.00100635    0.00089281
     atom  126 type  2   force =    -0.00000881    0.00100566    0.00089124
     atom  127 type  2   force =    -0.00000584    0.00055019    0.00089278
     atom  128 type  2   force =    -0.00000672    0.00055024    0.00089279
     atom  129 type  2   force =    -0.00000617    0.00064894    0.00098675
     atom  130 type  2   force =    -0.00010243    0.00091098    0.00090087
     atom  131 type  2   force =     0.00008509    0.00091101    0.00090091
     atom  132 type  2   force =    -0.00000875    0.00092205    0.00099454
     atom  133 type  2   force =    -0.00000995    0.00103278    0.00102343
     atom  134 type  2   force =    -0.00000197    0.00103275    0.00102342
     atom  135 type  2   force =    -0.00000595    0.00103174    0.00102664
     atom  136 type  2   force =     0.00001559   -0.00066670    0.00058737
     atom  137 type  2   force =    -0.00002953   -0.00072019    0.00064080
     atom  138 type  2   force =     0.00006079   -0.00072012    0.00064080
     atom  139 type  2   force =     0.00001753   -0.00116961    0.00063090
     atom  140 type  2   force =    -0.00001463   -0.00110140    0.00072723
     atom  141 type  2   force =     0.00004979   -0.00110141    0.00072718
     atom  142 type  2   force =     0.00001832   -0.00075888    0.00070347
     atom  143 type  2   force =     0.00001920   -0.00076166    0.00070197
     atom  144 type  2   force =     0.00001730   -0.00076155    0.00070188
     atom  145 type  2   force =     0.00001524   -0.00082225    0.00094079
     atom  146 type  2   force =     0.00002375   -0.00082544    0.00095278
     atom  147 type  2   force =     0.00000676   -0.00082554    0.00095285
     atom  148 type  2   force =     0.00001741   -0.00102068    0.00092254
     atom  149 type  2   force =     0.00002742   -0.00102449    0.00092530
     atom  150 type  2   force =     0.00000729   -0.00102450    0.00092532
     atom  151 type  2   force =     0.00001790   -0.00075628    0.00094867
     atom  152 type  2   force =     0.00001798   -0.00075927    0.00095043
     atom  153 type  2   force =     0.00001783   -0.00075921    0.00095036
     atom  154 type  2   force =     0.00001289   -0.00095912    0.00088636
     atom  155 type  2   force =     0.00002263   -0.00089048    0.00088674
     atom  156 type  2   force =     0.00000324   -0.00089047    0.00088675
     atom  157 type  2   force =     0.00001497    0.00048575   -0.00052156
     atom  158 type  2   force =     0.00010523   -0.00106492    0.00086481
     atom  159 type  2   force =    -0.00007524   -0.00106499    0.00086487
     atom  160 type  2   force =     0.00001579   -0.00075031    0.00079247
     atom  161 type  2   force =     0.00002806   -0.00075404    0.00079736
     atom  162 type  2   force =     0.00000340   -0.00075401    0.00079733

     Total force =     0.014537     Total SCF correction =     0.000065
 
     init_run     :     23.69s CPU     32.04s WALL (       1 calls)
     electrons    :   1007.68s CPU   1351.09s WALL (       1 calls)
     forces       :     20.03s CPU     32.28s WALL (       1 calls)

     Called by init_run:
     wfcinit      :     23.23s CPU     31.42s WALL (       1 calls)
     potinit      :      0.09s CPU      0.11s WALL (       1 calls)
     hinit0       :      0.17s CPU      0.31s WALL (       1 calls)

     Called by electrons:
     c_bands      :    963.63s CPU   1301.62s WALL (      14 calls)
     sum_band     :     43.53s CPU     48.47s WALL (      14 calls)
     v_of_rho     :      0.42s CPU      0.76s WALL (      15 calls)
     mix_rho      :      0.11s CPU      0.24s WALL (      14 calls)

     Called by c_bands:
     init_us_2    :      8.23s CPU      8.35s WALL (     240 calls)
     cegterg      :    934.17s CPU   1271.27s WALL (     112 calls)

     Called by *egterg:
     cdiaghg      :     65.61s CPU    121.45s WALL (     509 calls)
     h_psi        :    479.22s CPU    527.64s WALL (     517 calls)
     g_psi        :      1.73s CPU      1.77s WALL (     397 calls)

     Called by h_psi:
     h_psi:calbec :    150.81s CPU    165.26s WALL (     517 calls)
     vloc_psi     :    202.40s CPU    233.36s WALL (     517 calls)
     add_vuspsi   :    122.47s CPU    125.06s WALL (     517 calls)

     General routines
     calbec       :    166.56s CPU    193.07s WALL (     549 calls)
     fft          :      0.30s CPU      0.61s WALL (     160 calls)
     ffts         :      0.01s CPU      0.01s WALL (      14 calls)
     fftw         :    224.11s CPU    257.83s WALL (  532410 calls)
 
     Parallel routines
 
     PWSCF        :  17m31.46s CPU  23m35.63s WALL

 
   This run was terminated on:  17:59:52  19May2025            

=------------------------------------------------------------------------------=
   JOB DONE.
=------------------------------------------------------------------------------=
