
     Program PWSCF v.6.8 starts on 19May2025 at 17:37:18 

     This program is part of the open-source Quantum ESPRESSO suite
     for quantum simulation of materials; please cite
         "P. Giannozzi et al., J. Phys.:Condens. Matter 21 395502 (2009);
         "P. Giannozzi et al., J. Phys.:Condens. Matter 29 465901 (2017);
         "P. Giannozzi et al., J. Chem. Phys. 152 154105 (2020);
          URL http://www.quantum-espresso.org", 
     in publications or presentations arising from this work. More details at
     http://www.quantum-espresso.org/quote

     Parallel version (MPI & OpenMP), running on      56 processor cores
     Number of MPI processes:                56
     Threads/MPI process:                     1

     MPI processes distributed on     1 nodes
     R & G space division:  proc/nbgrp/npool/nimage =      56
     185996 MiB available memory on the printing compute node when the environment starts
 
     Reading input from supercell-021.in

     Current dimensions of program PWSCF are:
     Max number of different atomic species (ntypx) = 10
     Max number of k-points (npk) =  40000
     Max angular momentum in pseudopotentials (lmaxx) =  4
     Message from routine setup:
     using ibrav=0 with symmetry is DISCOURAGED, use correct ibrav instead

     Subspace diagonalization in iterative solution of the eigenvalue problem:
     one sub-group per band group will be used
     scalapack distributed-memory algorithm (size of sub-group:  7*  7 procs)

 
     Parallelization info
     --------------------
     sticks:   dense  smooth     PW     G-vecs:    dense   smooth      PW
     Min         142     142     37                11872    11872    1609
     Max         143     143     38                11879    11879    1614
     Sum        7985    7985   2105               665041   665041   90217
 
     Using Slab Decomposition
 


     bravais-lattice index     =            0
     lattice parameter (alat)  =      16.4683  a.u.
     unit-cell volume          =   10586.5407 (a.u.)^3
     number of atoms/cell      =          162
     number of atomic types    =            2
     number of electrons       =      1404.00
     number of Kohn-Sham states=          702
     kinetic-energy cutoff     =      60.0000  Ry
     charge density cutoff     =     240.0000  Ry
     scf convergence threshold =      1.0E-08
     mixing beta               =       0.7000
     number of iterations used =            8  plain     mixing
     Exchange-correlation= PBE
                           (   1   4   3   4   0   0   0)

     celldm(1)=  16.468320  celldm(2)=   0.000000  celldm(3)=   0.000000
     celldm(4)=   0.000000  celldm(5)=   0.000000  celldm(6)=   0.000000

     crystal axes: (cart. coord. in units of alat)
               a(1) = (   1.000000   0.000000   0.000000 )  
               a(2) = (   0.000000   1.539583   0.000000 )  
               a(3) = (   0.000000   0.000000   1.539583 )  

     reciprocal axes: (cart. coord. in units 2 pi/alat)
               b(1) = (  1.000000  0.000000  0.000000 )  
               b(2) = (  0.000000  0.649527  0.000000 )  
               b(3) = (  0.000000  0.000000  0.649527 )  


     PseudoPot. # 1 for Ge read from file:
     ./Ge.upf
     MD5 check sum: 087fa14d6c89b52166990835c3b338da
     Pseudo is Norm-conserving + core correction, Zval = 14.0
     Generated using ONCVPSP code by D. R. Hamann
     Using radial grid of 1560 points,  6 beta functions with: 
                l(1) =   0
                l(2) =   0
                l(3) =   1
                l(4) =   1
                l(5) =   2
                l(6) =   2

     PseudoPot. # 2 for O  read from file:
     ./O.upf
     MD5 check sum: 9db02a5ece9d56b81b65a73f8163743d
     Pseudo is Norm-conserving + core correction, Zval =  6.0
     Generated using ONCVPSP code by D. R. Hamann
     Using radial grid of  936 points,  5 beta functions with: 
                l(1) =   0
                l(2) =   0
                l(3) =   1
                l(4) =   1
                l(5) =   2

     atomic species   valence    mass     pseudopotential
        Ge            14.00    72.64000     Ge( 1.00)
        O              6.00    15.99940     O ( 1.00)

      2 Sym. Ops. (no inversion) found



   Cartesian axes

     site n.     atom                  positions (alat units)
         1           Ge  tau(   1) = (   0.1668459   0.2567076   0.2567076  )
         2           Ge  tau(   2) = (   0.5001793   0.2567076   0.2567076  )
         3           Ge  tau(   3) = (   0.8335126   0.2567076   0.2567076  )
         4           Ge  tau(   4) = (   0.1668459   0.7699019   0.2567076  )
         5           Ge  tau(   5) = (   0.5001793   0.7699019   0.2567076  )
         6           Ge  tau(   6) = (   0.8335126   0.7699019   0.2567076  )
         7           Ge  tau(   7) = (   0.1668459   1.2830962   0.2567076  )
         8           Ge  tau(   8) = (   0.5001793   1.2830962   0.2567076  )
         9           Ge  tau(   9) = (   0.8335126   1.2830962   0.2567076  )
        10           Ge  tau(  10) = (   0.1668459   0.2567076   0.7699019  )
        11           Ge  tau(  11) = (   0.5001793   0.2567076   0.7699019  )
        12           Ge  tau(  12) = (   0.8335126   0.2567076   0.7699019  )
        13           Ge  tau(  13) = (   0.1668459   0.7699019   0.7699019  )
        14           Ge  tau(  14) = (   0.5001793   0.7699019   0.7699019  )
        15           Ge  tau(  15) = (   0.8335126   0.7699019   0.7699019  )
        16           Ge  tau(  16) = (   0.1668459   1.2830962   0.7699019  )
        17           Ge  tau(  17) = (   0.5001793   1.2830962   0.7699019  )
        18           Ge  tau(  18) = (   0.8335126   1.2830962   0.7699019  )
        19           Ge  tau(  19) = (   0.1668459   0.2567076   1.2830962  )
        20           Ge  tau(  20) = (   0.5001793   0.2567076   1.2830962  )
        21           Ge  tau(  21) = (   0.8335126   0.2567076   1.2830962  )
        22           Ge  tau(  22) = (   0.1668459   0.7699019   1.2830962  )
        23           Ge  tau(  23) = (   0.5001793   0.7699019   1.2830962  )
        24           Ge  tau(  24) = (   0.8335126   0.7699019   1.2830962  )
        25           Ge  tau(  25) = (   0.1668459   1.2830962   1.2830962  )
        26           Ge  tau(  26) = (   0.5001793   1.2830962   1.2830962  )
        27           Ge  tau(  27) = (   0.8335126   1.2830962   1.2830962  )
        28           Ge  tau(  28) = (   0.0002011   0.0001111   0.0001111  )
        29           Ge  tau(  29) = (   0.3335344   0.0001111   0.0001111  )
        30           Ge  tau(  30) = (   0.6668677   0.0001111   0.0001111  )
        31           Ge  tau(  31) = (   0.0002011   0.5133054   0.0001111  )
        32           Ge  tau(  32) = (   0.3335344   0.5133054   0.0001111  )
        33           Ge  tau(  33) = (   0.6668677   0.5133054   0.0001111  )
        34           Ge  tau(  34) = (   0.0002011   1.0264997   0.0001111  )
        35           Ge  tau(  35) = (   0.3335344   1.0264997   0.0001111  )
        36           Ge  tau(  36) = (   0.6668677   1.0264997   0.0001111  )
        37           Ge  tau(  37) = (   0.0002011   0.0001111   0.5133054  )
        38           Ge  tau(  38) = (   0.3335344   0.0001111   0.5133054  )
        39           Ge  tau(  39) = (   0.6668677   0.0001111   0.5133054  )
        40           Ge  tau(  40) = (   0.0002011   0.5133054   0.5133054  )
        41           Ge  tau(  41) = (   0.3335344   0.5133054   0.5133054  )
        42           Ge  tau(  42) = (   0.6668677   0.5133054   0.5133054  )
        43           Ge  tau(  43) = (   0.0002011   1.0264997   0.5133054  )
        44           Ge  tau(  44) = (   0.3335344   1.0264997   0.5133054  )
        45           Ge  tau(  45) = (   0.6668677   1.0264997   0.5133054  )
        46           Ge  tau(  46) = (   0.0002011   0.0001111   1.0264997  )
        47           Ge  tau(  47) = (   0.3335344   0.0001111   1.0264997  )
        48           Ge  tau(  48) = (   0.6668677   0.0001111   1.0264997  )
        49           Ge  tau(  49) = (   0.0002011   0.5133054   1.0264997  )
        50           Ge  tau(  50) = (   0.3335344   0.5133054   1.0264997  )
        51           Ge  tau(  51) = (   0.6668677   0.5133054   1.0264997  )
        52           Ge  tau(  52) = (   0.0002011   1.0264997   1.0264997  )
        53           Ge  tau(  53) = (   0.3335344   1.0264997   1.0264997  )
        54           Ge  tau(  54) = (   0.6668677   1.0264997   1.0264997  )
        55           O   tau(  55) = (   0.0001875   0.3558055   0.3558055  )
        56           O   tau(  56) = (   0.3335209   0.3558055   0.3558055  )
        57           O   tau(  57) = (   0.6668542   0.3558055   0.3558055  )
        58           O   tau(  58) = (   0.0001875   0.8689998   0.3558055  )
        59           O   tau(  59) = (   0.3335209   0.8689998   0.3558055  )
        60           O   tau(  60) = (   0.6668542   0.8689998   0.3558055  )
        61           O   tau(  61) = (   0.0001875   1.3821941   0.3558055  )
        62           O   tau(  62) = (   0.3335209   1.3821941   0.3558055  )
        63           O   tau(  63) = (   0.6668542   1.3821941   0.3558055  )
        64           O   tau(  64) = (   0.0001875   0.3558055   0.8689998  )
        65           O   tau(  65) = (   0.3335209   0.3558055   0.8689998  )
        66           O   tau(  66) = (   0.6668542   0.3558055   0.8689998  )
        67           O   tau(  67) = (   0.0001875   0.8689998   0.8689998  )
        68           O   tau(  68) = (   0.3335209   0.8689998   0.8689998  )
        69           O   tau(  69) = (   0.6668542   0.8689998   0.8689998  )
        70           O   tau(  70) = (   0.0001875   1.3821941   0.8689998  )
        71           O   tau(  71) = (   0.3335209   1.3821941   0.8689998  )
        72           O   tau(  72) = (   0.6668542   1.3821941   0.8689998  )
        73           O   tau(  73) = (   0.0001875   0.3558055   1.3821941  )
        74           O   tau(  74) = (   0.3335209   0.3558055   1.3821941  )
        75           O   tau(  75) = (   0.6668542   0.3558055   1.3821941  )
        76           O   tau(  76) = (   0.0001875   0.8689998   1.3821941  )
        77           O   tau(  77) = (   0.3335209   0.8689998   1.3821941  )
        78           O   tau(  78) = (   0.6668542   0.8689998   1.3821941  )
        79           O   tau(  79) = (   0.0001875   1.3821941   1.3821941  )
        80           O   tau(  80) = (   0.3335209   1.3821941   1.3821941  )
        81           O   tau(  81) = (   0.6668542   1.3821941   1.3821941  )
        82           O   tau(  82) = (   0.1668565   0.4142272   0.0992221  )
        83           O   tau(  83) = (   0.5001898   0.4142272   0.0992221  )
        84           O   tau(  84) = (   0.8335231   0.4142272   0.0992221  )
        85           O   tau(  85) = (   0.1668565   0.9274215   0.0992221  )
        86           O   tau(  86) = (   0.5001898   0.9274215   0.0992221  )
        87           O   tau(  87) = (   0.8335231   0.9274215   0.0992221  )
        88           O   tau(  88) = (   0.1668565   1.4406159   0.0992221  )
        89           O   tau(  89) = (   0.5001898   1.4406159   0.0992221  )
        90           O   tau(  90) = (   0.8335231   1.4406159   0.0992221  )
        91           O   tau(  91) = (   0.1668565   0.4142272   0.6124165  )
        92           O   tau(  92) = (   0.5001898   0.4142272   0.6124165  )
        93           O   tau(  93) = (   0.8335231   0.4142272   0.6124165  )
        94           O   tau(  94) = (   0.1668565   0.9274215   0.6124165  )
        95           O   tau(  95) = (   0.5001898   0.9274215   0.6124165  )
        96           O   tau(  96) = (   0.8335231   0.9274215   0.6124165  )
        97           O   tau(  97) = (   0.1668565   1.4406159   0.6124165  )
        98           O   tau(  98) = (   0.5001898   1.4406159   0.6124165  )
        99           O   tau(  99) = (   0.8335231   1.4406159   0.6124165  )
       100           O   tau( 100) = (   0.1668565   0.4142272   1.1256108  )
       101           O   tau( 101) = (   0.5001898   0.4142272   1.1256108  )
       102           O   tau( 102) = (   0.8335231   0.4142272   1.1256108  )
       103           O   tau( 103) = (   0.1668565   0.9274215   1.1256108  )
       104           O   tau( 104) = (   0.5001898   0.9274215   1.1256108  )
       105           O   tau( 105) = (   0.8335231   0.9274215   1.1256108  )
       106           O   tau( 106) = (   0.1668565   1.4406159   1.1256108  )
       107           O   tau( 107) = (   0.5001898   1.4406159   1.1256108  )
       108           O   tau( 108) = (   0.8335231   1.4406159   1.1256108  )
       109           O   tau( 109) = (   0.0014020   0.1576176   0.1576176  )
       110           O   tau( 110) = (   0.3335209   0.1576176   0.1576176  )
       111           O   tau( 111) = (   0.6668542   0.1576176   0.1576176  )
       112           O   tau( 112) = (   0.0001875   0.6708120   0.1576176  )
       113           O   tau( 113) = (   0.3335209   0.6708120   0.1576176  )
       114           O   tau( 114) = (   0.6668542   0.6708120   0.1576176  )
       115           O   tau( 115) = (   0.0001875   1.1840063   0.1576176  )
       116           O   tau( 116) = (   0.3335209   1.1840063   0.1576176  )
       117           O   tau( 117) = (   0.6668542   1.1840063   0.1576176  )
       118           O   tau( 118) = (   0.0001875   0.1576176   0.6708120  )
       119           O   tau( 119) = (   0.3335209   0.1576176   0.6708120  )
       120           O   tau( 120) = (   0.6668542   0.1576176   0.6708120  )
       121           O   tau( 121) = (   0.0001875   0.6708120   0.6708120  )
       122           O   tau( 122) = (   0.3335209   0.6708120   0.6708120  )
       123           O   tau( 123) = (   0.6668542   0.6708120   0.6708120  )
       124           O   tau( 124) = (   0.0001875   1.1840063   0.6708120  )
       125           O   tau( 125) = (   0.3335209   1.1840063   0.6708120  )
       126           O   tau( 126) = (   0.6668542   1.1840063   0.6708120  )
       127           O   tau( 127) = (   0.0001875   0.1576176   1.1840063  )
       128           O   tau( 128) = (   0.3335209   0.1576176   1.1840063  )
       129           O   tau( 129) = (   0.6668542   0.1576176   1.1840063  )
       130           O   tau( 130) = (   0.0001875   0.6708120   1.1840063  )
       131           O   tau( 131) = (   0.3335209   0.6708120   1.1840063  )
       132           O   tau( 132) = (   0.6668542   0.6708120   1.1840063  )
       133           O   tau( 133) = (   0.0001875   1.1840063   1.1840063  )
       134           O   tau( 134) = (   0.3335209   1.1840063   1.1840063  )
       135           O   tau( 135) = (   0.6668542   1.1840063   1.1840063  )
       136           O   tau( 136) = (   0.1668565   0.0992221   0.4142272  )
       137           O   tau( 137) = (   0.5001898   0.0992221   0.4142272  )
       138           O   tau( 138) = (   0.8335231   0.0992221   0.4142272  )
       139           O   tau( 139) = (   0.1668565   0.6124165   0.4142272  )
       140           O   tau( 140) = (   0.5001898   0.6124165   0.4142272  )
       141           O   tau( 141) = (   0.8335231   0.6124165   0.4142272  )
       142           O   tau( 142) = (   0.1668565   1.1256108   0.4142272  )
       143           O   tau( 143) = (   0.5001898   1.1256108   0.4142272  )
       144           O   tau( 144) = (   0.8335231   1.1256108   0.4142272  )
       145           O   tau( 145) = (   0.1668565   0.0992221   0.9274215  )
       146           O   tau( 146) = (   0.5001898   0.0992221   0.9274215  )
       147           O   tau( 147) = (   0.8335231   0.0992221   0.9274215  )
       148           O   tau( 148) = (   0.1668565   0.6124165   0.9274215  )
       149           O   tau( 149) = (   0.5001898   0.6124165   0.9274215  )
       150           O   tau( 150) = (   0.8335231   0.6124165   0.9274215  )
       151           O   tau( 151) = (   0.1668565   1.1256108   0.9274215  )
       152           O   tau( 152) = (   0.5001898   1.1256108   0.9274215  )
       153           O   tau( 153) = (   0.8335231   1.1256108   0.9274215  )
       154           O   tau( 154) = (   0.1668565   0.0992221   1.4406159  )
       155           O   tau( 155) = (   0.5001898   0.0992221   1.4406159  )
       156           O   tau( 156) = (   0.8335231   0.0992221   1.4406159  )
       157           O   tau( 157) = (   0.1668565   0.6124165   1.4406159  )
       158           O   tau( 158) = (   0.5001898   0.6124165   1.4406159  )
       159           O   tau( 159) = (   0.8335231   0.6124165   1.4406159  )
       160           O   tau( 160) = (   0.1668565   1.1256108   1.4406159  )
       161           O   tau( 161) = (   0.5001898   1.1256108   1.4406159  )
       162           O   tau( 162) = (   0.8335231   1.1256108   1.4406159  )

     number of k points=     6
                       cart. coord. in units 2pi/alat
        k(    1) = (   0.0000000   0.0000000   0.0000000), wk =   0.1666667
        k(    2) = (   0.0000000   0.0000000  -0.3247633), wk =   0.3333333
        k(    3) = (   0.0000000  -0.3247633  -0.3247633), wk =   0.1666667
        k(    4) = (   0.3333333   0.0000000   0.0000000), wk =   0.3333333
        k(    5) = (   0.3333333   0.0000000  -0.3247633), wk =   0.6666667
        k(    6) = (   0.3333333  -0.3247633  -0.3247633), wk =   0.3333333

     Dense  grid:   665041 G-vectors     FFT dimensions: (  81, 125, 125)

     Estimated max dynamical RAM per process >     265.66 MB

     Estimated total dynamical RAM >      14.53 GB

     Check: negative core charge=   -0.000052

     Initial potential from superposition of free atoms

     starting charge 1403.95515, renormalised to 1404.00000
     Starting wfcs are  918 randomized atomic wfcs

     total cpu time spent up to now is       24.4 secs

     Self-consistent Calculation

     iteration #  1     ecut=    60.00 Ry     beta= 0.70
     Davidson diagonalization with overlap
     ethr =  1.00E-02,  avg # of iterations =  2.0

     total cpu time spent up to now is       92.1 secs

     total energy              =  -13210.92644748 Ry
     estimated scf accuracy    <      34.04860382 Ry

     iteration #  2     ecut=    60.00 Ry     beta= 0.70
     Davidson diagonalization with overlap
     ethr =  2.43E-03,  avg # of iterations =  3.8

     total cpu time spent up to now is      164.7 secs

     total energy              =  -13222.25209695 Ry
     estimated scf accuracy    <      22.02192916 Ry

     iteration #  3     ecut=    60.00 Ry     beta= 0.70
     Davidson diagonalization with overlap
     ethr =  1.57E-03,  avg # of iterations =  2.0

     total cpu time spent up to now is      229.4 secs

     total energy              =  -13225.45800688 Ry
     estimated scf accuracy    <       0.43833862 Ry

     iteration #  4     ecut=    60.00 Ry     beta= 0.70
     Davidson diagonalization with overlap
     ethr =  3.12E-05,  avg # of iterations =  6.0

     total cpu time spent up to now is      324.8 secs

     total energy              =  -13225.87536995 Ry
     estimated scf accuracy    <       0.56210412 Ry

     iteration #  5     ecut=    60.00 Ry     beta= 0.70
     Davidson diagonalization with overlap
     ethr =  3.12E-05,  avg # of iterations =  2.0

     total cpu time spent up to now is      385.2 secs

     total energy              =  -13225.87615461 Ry
     estimated scf accuracy    <       0.09235036 Ry

     iteration #  6     ecut=    60.00 Ry     beta= 0.70
     Davidson diagonalization with overlap
     ethr =  6.58E-06,  avg # of iterations =  4.5

     total cpu time spent up to now is      460.3 secs

     total energy              =  -13225.90788239 Ry
     estimated scf accuracy    <       0.00122464 Ry

     iteration #  7     ecut=    60.00 Ry     beta= 0.70
     Davidson diagonalization with overlap
     ethr =  8.72E-08,  avg # of iterations =  3.0

     total cpu time spent up to now is      540.2 secs

     total energy              =  -13225.90720473 Ry
     estimated scf accuracy    <       0.00346439 Ry

     iteration #  8     ecut=    60.00 Ry     beta= 0.70
     Davidson diagonalization with overlap
     ethr =  8.72E-08,  avg # of iterations =  2.0

     total cpu time spent up to now is      604.8 secs

     total energy              =  -13225.90702259 Ry
     estimated scf accuracy    <       0.00090203 Ry

     iteration #  9     ecut=    60.00 Ry     beta= 0.70
     Davidson diagonalization with overlap
     ethr =  6.42E-08,  avg # of iterations =  4.5

     total cpu time spent up to now is      675.3 secs

     total energy              =  -13225.90717596 Ry
     estimated scf accuracy    <       0.00003036 Ry

     iteration # 10     ecut=    60.00 Ry     beta= 0.70
     Davidson diagonalization with overlap
     ethr =  2.16E-09,  avg # of iterations =  4.7

     total cpu time spent up to now is      744.2 secs

     total energy              =  -13225.90718314 Ry
     estimated scf accuracy    <       0.00000279 Ry

     iteration # 11     ecut=    60.00 Ry     beta= 0.70
     Davidson diagonalization with overlap
     ethr =  1.99E-10,  avg # of iterations =  4.5

     total cpu time spent up to now is      821.6 secs

     total energy              =  -13225.90718417 Ry
     estimated scf accuracy    <       0.00000007 Ry

     iteration # 12     ecut=    60.00 Ry     beta= 0.70
     Davidson diagonalization with overlap
     ethr =  4.73E-12,  avg # of iterations =  5.3

     total cpu time spent up to now is      904.6 secs

     total energy              =  -13225.90718418 Ry
     estimated scf accuracy    <       0.00000006 Ry

     iteration # 13     ecut=    60.00 Ry     beta= 0.70
     Davidson diagonalization with overlap
     ethr =  4.21E-12,  avg # of iterations =  2.5

     total cpu time spent up to now is      963.1 secs

     total energy              =  -13225.90718417 Ry
     estimated scf accuracy    <       0.00000002 Ry

     iteration # 14     ecut=    60.00 Ry     beta= 0.70
     Davidson diagonalization with overlap
     ethr =  1.72E-12,  avg # of iterations =  4.2

     total cpu time spent up to now is     1032.7 secs

     End of self-consistent calculation

          k = 0.0000 0.0000 0.0000 ( 83133 PWs)   bands (ev):

   -14.2937 -14.2521 -14.2521 -14.2521 -14.2521 -14.2349 -14.2348 -14.2348
   -14.2348 -14.2201 -14.2195 -14.2194 -14.2192 -14.2189 -14.2188 -14.2188
   -14.2186 -14.2177 -14.2175 -14.2175 -14.2173 -14.2167 -14.2166 -14.2165
   -14.2161 -14.2122 -14.2119 -14.2119 -14.2117 -14.2115 -14.2113 -14.2112
   -14.2107 -14.1885 -14.1885 -14.1885 -14.1885 -14.1842 -14.1839 -14.1836
   -14.1835 -14.1830 -14.1830 -14.1827 -14.1824 -14.1822 -14.1822 -14.1813
   -14.1809 -14.1625 -14.1625 -14.1624 -14.1624 -14.1207 -14.1195 -14.1192
   -14.0664 -14.0658 -14.0656 -14.0655 -14.0651 -14.0650 -14.0649 -14.0642
   -14.0415 -14.0412 -14.0410 -14.0409 -14.0406 -14.0406 -14.0405 -14.0401
   -14.0154 -14.0150 -14.0148 -14.0147 -14.0142 -14.0142 -14.0140 -14.0134
   -13.9923 -13.9918 -13.9916 -13.9916 -13.9915 -13.9915 -13.9912 -13.9911
   -13.9911 -13.9905 -13.9904 -13.9904 -13.9903 -13.9901 -13.9867 -13.9867
   -13.9866 -13.9866 -13.9864 -13.9864 -13.9864 -13.9862 -13.9853 -13.9847
   -13.9847 -13.9846 -13.9845 -13.9832 -13.9831 -13.9811 -13.9809 -13.9809
   -13.9809 -13.9807 -13.9806 -13.9806 -13.9805 -13.9630 -13.9628 -13.9628
   -13.9628 -13.9576 -13.9574 -13.9574 -13.9574 -13.9403 -13.9372 -13.9364
   -13.9362 -13.9362 -13.9359 -13.9359 -13.9358 -13.9358 -13.9357 -13.9357
   -13.9357 -13.9356 -13.9355 -13.9355 -13.9355 -13.9355 -13.9354 -13.9354
   -13.9354 -13.9353 -13.9353 -13.9353 -13.9352 -13.9351 -13.9350 -13.9348
   -13.9348 -13.9347 -13.9345 -13.9345 -13.9345 -13.9341 -13.9340 -13.9335
   -13.9312 -13.9288 -13.9284 -13.9274 -13.9209 -13.9199 -13.9196 -13.9195
   -13.9192 -13.9191 -13.9189 -13.9185 -13.9164 -13.9156 -13.9153 -13.9152
   -13.9147 -13.9145 -13.9143 -13.9142 -13.9142 -13.9142 -13.9141 -13.9141
   -13.9140 -13.9140 -13.9136 -13.9136 -13.9135 -13.9134 -13.9133 -13.9133
   -13.9132 -13.9132 -13.9131 -13.9129 -13.9126 -13.9124 -13.9094 -13.9066
   -13.9055 -13.9038 -13.9034 -13.9034 -13.9034 -13.9020 -13.9020 -13.9020
   -13.9017 -13.8983 -13.8957 -13.8957 -13.8957 -13.8956 -13.8955 -13.8954
   -13.8954 -13.8951 -13.8951 -13.8951 -13.8951 -13.8947 -13.8947 -13.8947
   -13.8943 -13.8943 -13.8943 -13.8941 -13.8938 -13.8931 -13.8924 -13.8921
   -13.8921 -13.8920 -13.8920 -13.8919 -13.8917 -13.8914 -13.8913 -13.8911
   -13.8911 -13.8910 -13.8909 -13.8906 -13.8903 -13.8898 -13.8897 -13.8895
   -13.8894 -13.8864 -13.8861 -13.8858 -13.8858 -13.8858 -13.8857 -13.8857
   -13.8856 -13.8856 -13.8855 -13.8855 -13.8855 -13.8855 -13.8853 -13.8852
   -13.8851 -13.8851 -13.8850 -13.8848 -13.8837 -13.8794 -10.2581  -9.7875
    -9.7875  -9.7875  -9.7875  -9.3398  -9.3398  -9.3398  -9.3398  -9.1869
    -9.1863  -8.8139  -8.8129  -8.8127  -8.8126  -8.8125  -8.8124  -8.8122
    -8.8112  -8.5476  -8.5476  -8.5476  -8.5476  -8.4905  -8.4898  -8.4893
    -8.4891  -8.4890  -8.4889  -8.4885  -8.4876  -8.4723  -8.4723  -8.4723
    -8.4723  -7.9431  -7.9427  -7.9422  -7.9420  -7.9419  -7.9417  -7.9412
    -7.9408  -7.8865  -7.8860  -7.8857  -7.8854  -7.8853  -7.8850  -7.8847
    -7.8842  -7.5836  -7.5836  -7.5835  -7.5835  -7.4328  -7.4327  -7.1660
    -7.1652  -7.1051  -7.1051  -7.1051  -7.1051  -6.9704  -6.9704  -6.9704
    -6.9704  -6.7966  -6.7962  -6.7955  -6.7953  -6.7948  -6.7947  -6.7940
    -6.7935  -6.7333  -6.6779  -6.6778  -6.6763  -6.6761  -6.5966  -6.5958
    -6.5955  -6.5952  -6.5948  -6.5946  -6.5943  -6.5936  -6.5858  -6.5858
    -6.5857  -6.5857  -6.5755  -6.5749  -6.5746  -6.5744  -6.5742  -6.5739
    -6.5737  -6.5729  -6.5023  -6.5012  -6.5011  -6.5009  -6.5007  -6.5004
    -6.5003  -6.4990   0.4405   0.4860   0.4867   1.2356   1.2372   1.2374
     1.2376   1.2378   1.2379   1.2381   1.2397   1.2953   1.2953   1.2953
     1.2953   1.3112   1.3132   1.3132   1.3132   1.3133   1.3133   1.3134
     1.3154   1.8128   1.8143   1.8145   1.8147   1.8150   1.8152   1.8153
     1.8169   2.2368   2.2368   2.2368   2.2369   2.8185   2.8210   2.8211
     2.8213   2.8213   2.8215   2.8216   2.8241   3.3699   3.3713   3.4064
     3.4064   3.4064   3.4064   3.6832   3.6832   3.6833   3.6833   3.8362
     3.8368   3.8369   3.8369   3.8370   3.8371   3.8372   3.8378   4.1548
     4.1553   4.1555   4.1556   4.1558   4.1559   4.1561   4.1566   4.6104
     4.6113   4.6117   4.6120   4.6120   4.6123   4.6126   4.6136   4.9210
     4.9215   4.9215   4.9216   4.9221   4.9222   4.9222   4.9226   4.9269
     4.9277   5.0083   5.0087   5.0089   5.0091   5.0092   5.0095   5.0096
     5.0100   5.2210   5.2210   5.4192   5.4192   5.4192   5.4192   5.5937
     5.5938   5.5942   5.5943   5.5943   5.5944   5.5946   5.5947   5.5978
     5.5983   5.5987   5.5990   5.6672   5.6676   5.6679   5.6680   5.6682
     5.6682   5.6686   5.6690   5.7510   5.8852   5.8852   5.8852   5.8852
     6.1704   6.1704   6.1705   6.1705   6.1903   6.3696   6.3697   6.3700
     6.3702   6.4036   6.4042   6.4798   6.4819   6.4820   6.4820   6.4830
     6.4832   6.4834   6.4834   6.4837   6.4838   6.4842   6.4861   6.6764
     6.6774   6.6774   6.6776   6.6779   6.6780   6.6781   6.6790   6.7652
     6.7652   6.7652   6.7652   7.0553   7.0554   7.0554   7.0554   7.0658
     7.0658   7.0658   7.0659   7.1746   7.2115   7.2115   7.2115   7.2115
     7.2481   7.2486   7.5781   7.5781   7.5781   7.5781   7.6381   7.6381
     7.6381   7.6381   7.8601   7.8609   7.8613   7.8613   7.8615   7.8615
     7.8619   7.8627   7.9046   7.9048   7.9054   7.9056   7.9057   7.9059
     7.9065   7.9067   8.0721   8.0941   8.0944   8.0946   8.0947   8.0948
     8.0948   8.0951   8.0954   8.1642   8.1642   8.1642   8.1642   8.3036
     8.3036   8.3036   8.3036   8.4457   8.4457   8.4458   8.4459   8.4867
     8.4873   8.4874   8.4874   8.4882   8.4883   8.4884   8.4890   8.5171
     8.5172   8.6113   8.6113   8.6113   8.6113   8.6262   8.6262   8.6263
     8.6263   8.6501   8.6506   8.6508   8.6510   8.6511   8.6513   8.6515
     8.6521   8.7164   8.7164   8.7164   8.7165   8.9312   8.9315   8.9319
     8.9320   8.9326   8.9328   8.9331   8.9336   9.0441   9.0447   9.0449
     9.0450   9.0451   9.0452   9.0454   9.0459   9.1434   9.1443   9.1443
     9.1451   9.1531   9.1538   9.1539   9.1539   9.1541   9.1542   9.1542
     9.1551   9.2553   9.2556   9.2556   9.2560   9.2564   9.2569   9.2570
     9.2572   9.2858   9.2859   9.2859   9.2859   9.4631   9.4642   9.5299
     9.5302   9.5302   9.5303   9.5393   9.5401   9.5403   9.5404   9.5405
     9.5405   9.5408   9.5418   9.5839   9.5840   9.5842   9.5843   9.5846
     9.5848   9.5849   9.5851   9.6811   9.6811   9.6811   9.6811   9.7106
     9.7106   9.9198   9.9198   9.9198   9.9199  10.4931

          k = 0.0000 0.0000-0.3248 ( 83134 PWs)   bands (ev):

   -14.2821 -14.2821 -14.2479 -14.2478 -14.2478 -14.2478 -14.2266 -14.2263
   -14.2260 -14.2259 -14.2254 -14.2253 -14.2250 -14.2249 -14.2249 -14.2249
   -14.2239 -14.2238 -14.2122 -14.2122 -14.2122 -14.2121 -14.2035 -14.2035
   -14.2009 -14.2006 -14.2005 -14.2004 -14.1981 -14.1977 -14.1974 -14.1973
   -14.1968 -14.1968 -14.1965 -14.1963 -14.1959 -14.1958 -14.1955 -14.1954
   -14.1949 -14.1948 -14.1946 -14.1941 -14.1901 -14.1901 -14.1900 -14.1897
   -14.1700 -14.1700 -14.1699 -14.1699 -14.1311 -14.1311 -14.0849 -14.0847
   -14.0846 -14.0844 -14.0568 -14.0563 -14.0560 -14.0560 -14.0557 -14.0557
   -14.0554 -14.0550 -14.0479 -14.0475 -14.0472 -14.0471 -14.0467 -14.0466
   -14.0463 -14.0456 -14.0114 -14.0112 -14.0103 -14.0101 -13.9965 -13.9961
   -13.9958 -13.9957 -13.9954 -13.9954 -13.9951 -13.9946 -13.9890 -13.9890
   -13.9890 -13.9889 -13.9886 -13.9884 -13.9883 -13.9879 -13.9878 -13.9877
   -13.9860 -13.9860 -13.9860 -13.9859 -13.9854 -13.9853 -13.9849 -13.9848
   -13.9841 -13.9840 -13.9840 -13.9839 -13.9824 -13.9823 -13.9823 -13.9823
   -13.9793 -13.9792 -13.9708 -13.9707 -13.9707 -13.9707 -13.9685 -13.9685
   -13.9570 -13.9568 -13.9568 -13.9568 -13.9409 -13.9384 -13.9378 -13.9377
   -13.9373 -13.9372 -13.9372 -13.9372 -13.9370 -13.9369 -13.9365 -13.9365
   -13.9364 -13.9363 -13.9360 -13.9360 -13.9359 -13.9358 -13.9354 -13.9353
   -13.9353 -13.9352 -13.9350 -13.9350 -13.9349 -13.9349 -13.9348 -13.9347
   -13.9344 -13.9344 -13.9340 -13.9335 -13.9334 -13.9333 -13.9326 -13.9326
   -13.9324 -13.9309 -13.9223 -13.9205 -13.9203 -13.9201 -13.9200 -13.9199
   -13.9199 -13.9198 -13.9197 -13.9197 -13.9195 -13.9195 -13.9194 -13.9194
   -13.9189 -13.9189 -13.9189 -13.9188 -13.9187 -13.9178 -13.9159 -13.9158
   -13.9151 -13.9149 -13.9148 -13.9147 -13.9134 -13.9132 -13.9130 -13.9130
   -13.9129 -13.9129 -13.9129 -13.9128 -13.9125 -13.9124 -13.9120 -13.9098
   -13.9072 -13.9062 -13.9062 -13.9061 -13.9007 -13.9006 -13.9006 -13.9004
   -13.9003 -13.8997 -13.8997 -13.8994 -13.8980 -13.8978 -13.8961 -13.8960
   -13.8958 -13.8942 -13.8942 -13.8942 -13.8940 -13.8934 -13.8931 -13.8930
   -13.8929 -13.8929 -13.8927 -13.8926 -13.8922 -13.8921 -13.8921 -13.8921
   -13.8920 -13.8916 -13.8915 -13.8915 -13.8914 -13.8914 -13.8911 -13.8907
   -13.8895 -13.8890 -13.8884 -13.8883 -13.8882 -13.8881 -13.8878 -13.8878
   -13.8878 -13.8877 -13.8874 -13.8874 -13.8868 -13.8867 -13.8865 -13.8863
   -13.8862 -13.8862 -13.8861 -13.8861 -13.8860 -13.8859 -13.8857 -13.8855
   -13.8853 -13.8844 -13.8838 -13.8838 -13.8836 -13.8792 -10.1383 -10.1382
    -9.6710  -9.6710  -9.6710  -9.6710  -9.2363  -9.2362  -9.0911  -9.0905
    -9.0904  -9.0898  -8.8648  -8.8648  -8.8647  -8.8647  -8.7273  -8.7263
    -8.7261  -8.7260  -8.7259  -8.7258  -8.7254  -8.7244  -8.4832  -8.4832
    -8.4831  -8.4831  -8.3894  -8.3890  -8.3880  -8.3877  -8.1806  -8.1801
    -8.1794  -8.1793  -8.1790  -8.1789  -8.1781  -8.1776  -7.8803  -7.8799
    -7.8795  -7.8794  -7.8793  -7.8791  -7.8787  -7.8782  -7.8403  -7.8403
    -7.4112  -7.4107  -7.4107  -7.4102  -7.3724  -7.3724  -7.3723  -7.3722
    -7.3432  -7.3431  -7.3160  -7.3160  -7.3160  -7.3160  -6.8050  -6.8049
    -6.7407  -6.7402  -6.7395  -6.7393  -6.7390  -6.7389  -6.7381  -6.7376
    -6.6854  -6.6847  -6.6845  -6.6842  -6.6837  -6.6834  -6.6833  -6.6825
    -6.6721  -6.6721  -6.6721  -6.6720  -6.6464  -6.6462  -6.6460  -6.6458
    -6.5899  -6.5898  -6.5820  -6.5814  -6.5814  -6.5808  -6.5096  -6.5089
    -6.5082  -6.5077  -6.5021  -6.5011  -6.5009  -6.5007  -6.5004  -6.5002
    -6.4999  -6.4987   0.6605   0.6605   0.7086   0.7094   0.7095   0.7103
     1.2552   1.2569   1.2570   1.2572   1.2573   1.2575   1.2576   1.2593
     1.4050   1.4065   1.4068   1.4069   1.4071   1.4072   1.4076   1.4091
     1.5547   1.5547   1.5547   1.5548   2.1259   2.1272   2.1274   2.1287
     2.2556   2.2557   2.4258   2.4277   2.4278   2.4280   2.4283   2.4285
     2.4286   2.4306   3.0957   3.0957   3.0958   3.0958   3.2177   3.2189
     3.2190   3.2203   3.5685   3.5685   3.5685   3.5685   3.6747   3.6749
     3.6753   3.6756   3.9018   3.9025   3.9026   3.9029   3.9030   3.9033
     3.9035   3.9042   4.4043   4.4049   4.4050   4.4056   4.5707   4.5707
     4.8118   4.8121   4.8125   4.8126   4.8129   4.8131   4.8134   4.8138
     4.8610   4.8616   4.8620   4.8621   4.8625   4.8627   4.8630   4.8636
     5.2086   5.2088   5.2091   5.2094   5.2539   5.2542   5.2545   5.2547
     5.2548   5.2551   5.2552   5.2555   5.3819   5.3819   5.6198   5.6215
     5.6217   5.6221   5.6223   5.6223   5.6225   5.6227   5.6229   5.6230
     5.6233   5.6246   5.6405   5.6412   5.6412   5.6418   5.6422   5.6423
     5.6425   5.6429   5.6530   5.6530   5.6531   5.6533   5.7867   5.7877
     5.7879   5.7882   5.7882   5.7885   5.7887   5.7898   5.8578   5.8579
     5.9312   5.9312   5.9314   5.9314   6.2535   6.2535   6.2536   6.2536
     6.4399   6.4399   6.6489   6.6491   6.7092   6.7095   6.7871   6.7871
     6.7873   6.7873   6.9277   6.9281   6.9285   6.9289   7.1864   7.1866
     7.1866   7.1866   7.1925   7.1925   7.1926   7.1927   7.3350   7.3354
     7.3357   7.3361   7.3574   7.3581   7.3583   7.3586   7.3587   7.3590
     7.3593   7.3600   7.4255   7.4255   7.4255   7.4255   7.5548   7.5549
     7.5635   7.5639   7.5641   7.5645   7.6924   7.6933   7.6935   7.6937
     7.6942   7.6943   7.6945   7.6954   7.7604   7.7607   7.7611   7.7616
     8.0700   8.0700   8.0701   8.0701   8.1290   8.1297   8.1299   8.1308
     8.2145   8.2151   8.2154   8.2155   8.2155   8.2156   8.2159   8.2165
     8.2226   8.2226   8.2226   8.2228   8.4168   8.4175   8.4177   8.4177
     8.4178   8.4178   8.4181   8.4188   8.4972   8.4972   8.4974   8.4975
     8.5245   8.5245   8.5247   8.5247   8.5456   8.5457   8.6491   8.6491
     8.6904   8.6906   8.7140   8.7140   8.7141   8.7141   8.7349   8.7354
     8.7359   8.7364   8.9729   8.9736   8.9739   8.9741   8.9741   8.9743
     8.9744   8.9751   8.9828   8.9831   8.9832   8.9836   8.9838   8.9840
     8.9842   8.9845   9.0339   9.0340   9.0826   9.0833   9.0834   9.0843
     9.1720   9.1728   9.1728   9.1735   9.1876   9.1880   9.1882   9.1884
     9.1888   9.1890   9.1892   9.1897   9.2754   9.2754   9.2754   9.2754
     9.3400   9.3406   9.3406   9.3411   9.4216   9.4218   9.4220   9.4223
     9.4223   9.4226   9.4228   9.4230   9.5118   9.5128   9.5129   9.5138
     9.5206   9.5206   9.5206   9.5207   9.5675   9.5683   9.5684   9.5685
     9.5686   9.5687   9.5689   9.5698   9.6941   9.6944   9.7014   9.7015
     9.8168   9.8168   9.8169   9.8169  10.3169  10.3170

          k = 0.0000-0.3248-0.3248 ( 83080 PWs)   bands (ev):

   -14.2738 -14.2738 -14.2738 -14.2738 -14.2192 -14.2189 -14.2184 -14.2178
   -14.2176 -14.2173 -14.2167 -14.2167 -14.2167 -14.2167 -14.2166 -14.2166
   -14.2165 -14.2164 -14.2162 -14.2161 -14.2161 -14.2161 -14.2159 -14.2158
   -14.2158 -14.2157 -14.2155 -14.2151 -14.2149 -14.2141 -14.2075 -14.2075
   -14.2074 -14.2074 -14.2074 -14.2074 -14.2074 -14.2072 -14.1828 -14.1825
   -14.1816 -14.1816 -14.1815 -14.1815 -14.1811 -14.1811 -14.1806 -14.1806
   -14.1803 -14.1797 -14.1400 -14.1400 -14.1399 -14.1399 -14.0838 -14.0833
   -14.0832 -14.0831 -14.0830 -14.0829 -14.0828 -14.0823 -14.0607 -14.0604
   -14.0596 -14.0592 -14.0205 -14.0196 -14.0193 -14.0192 -14.0190 -14.0189
   -14.0189 -14.0188 -14.0186 -14.0185 -14.0185 -14.0185 -14.0181 -14.0181
   -14.0178 -14.0168 -13.9898 -13.9898 -13.9895 -13.9891 -13.9889 -13.9889
   -13.9887 -13.9887 -13.9886 -13.9881 -13.9879 -13.9879 -13.9879 -13.9876
   -13.9860 -13.9860 -13.9860 -13.9860 -13.9860 -13.9860 -13.9859 -13.9857
   -13.9836 -13.9835 -13.9835 -13.9835 -13.9818 -13.9818 -13.9817 -13.9817
   -13.9773 -13.9773 -13.9717 -13.9715 -13.9715 -13.9715 -13.9714 -13.9714
   -13.9714 -13.9714 -13.9434 -13.9431 -13.9431 -13.9431 -13.9396 -13.9371
   -13.9366 -13.9365 -13.9360 -13.9359 -13.9359 -13.9359 -13.9358 -13.9356
   -13.9355 -13.9353 -13.9352 -13.9350 -13.9350 -13.9350 -13.9348 -13.9347
   -13.9347 -13.9346 -13.9344 -13.9343 -13.9339 -13.9338 -13.9337 -13.9336
   -13.9334 -13.9333 -13.9328 -13.9327 -13.9325 -13.9325 -13.9325 -13.9321
   -13.9316 -13.9299 -13.9233 -13.9225 -13.9222 -13.9220 -13.9219 -13.9219
   -13.9217 -13.9212 -13.9182 -13.9177 -13.9169 -13.9167 -13.9156 -13.9152
   -13.9149 -13.9146 -13.9146 -13.9146 -13.9145 -13.9141 -13.9140 -13.9140
   -13.9139 -13.9138 -13.9137 -13.9137 -13.9137 -13.9136 -13.9136 -13.9136
   -13.9136 -13.9135 -13.9135 -13.9134 -13.9133 -13.9132 -13.9131 -13.9126
   -13.9124 -13.9094 -13.9011 -13.9009 -13.9008 -13.9008 -13.9005 -13.8979
   -13.8977 -13.8976 -13.8976 -13.8975 -13.8975 -13.8975 -13.8965 -13.8965
   -13.8965 -13.8964 -13.8964 -13.8964 -13.8964 -13.8964 -13.8963 -13.8962
   -13.8962 -13.8962 -13.8960 -13.8960 -13.8956 -13.8951 -13.8937 -13.8934
   -13.8919 -13.8913 -13.8898 -13.8889 -13.8887 -13.8887 -13.8887 -13.8887
   -13.8885 -13.8884 -13.8883 -13.8883 -13.8883 -13.8882 -13.8881 -13.8880
   -13.8879 -13.8879 -13.8876 -13.8875 -13.8875 -13.8874 -13.8871 -13.8866
   -13.8865 -13.8864 -13.8863 -13.8862 -13.8862 -13.8860 -13.8859 -13.8856
   -13.8854 -13.8843 -13.8842 -13.8839 -13.8833 -13.8793 -10.0189 -10.0189
   -10.0189 -10.0188  -9.1324  -9.1324  -9.1324  -9.1324  -9.1323  -9.1323
    -9.1322  -9.1322  -8.9972  -8.9960  -8.9960  -8.9960  -8.9960  -8.9958
    -8.9958  -8.9946  -8.6661  -8.6661  -8.3276  -8.3257  -8.3257  -8.3250
    -8.3250  -8.3249  -8.3249  -8.3248  -8.3247  -8.3247  -8.3246  -8.3246
    -8.3245  -8.3237  -8.3237  -8.3219  -8.0931  -8.0929  -8.0916  -8.0914
    -7.9327  -7.9327  -7.9327  -7.9327  -7.6326  -7.6326  -7.5312  -7.5308
    -7.5306  -7.5304  -7.5303  -7.5300  -7.5299  -7.5294  -7.4838  -7.4838
    -7.4837  -7.4837  -6.9769  -6.9769  -6.9769  -6.9769  -6.9768  -6.9768
    -6.9767  -6.9767  -6.8340  -6.8339  -6.8324  -6.8322  -6.7176  -6.7172
    -6.7166  -6.7163  -6.7158  -6.7157  -6.7151  -6.7146  -6.5819  -6.5802
    -6.5799  -6.5794  -6.5793  -6.5792  -6.5792  -6.5792  -6.5791  -6.5790
    -6.5789  -6.5788  -6.5787  -6.5783  -6.5779  -6.5762  -6.5531  -6.5530
    -6.5530  -6.5530  -6.5085  -6.5076  -6.5074  -6.5071  -6.5068  -6.5065
    -6.5064  -6.5052   0.8576   0.8593   0.8593   0.8593   0.8594   0.8595
     0.8596   0.8612   0.8961   0.8962   0.8962   0.8962   1.2655   1.2663
     1.2670   1.2677   1.7945   1.7983   1.7983   1.7985   1.7985   1.7986
     1.7987   1.7989   1.7989   1.7990   1.7991   1.7992   1.7993   1.7994
     1.7994   1.8033   2.5049   2.5049   2.5049   2.5049   2.5049   2.5050
     2.5050   2.5050   3.0206   3.0229   3.0231   3.0231   3.0233   3.0233
     3.0235   3.0259   3.4801   3.4802   3.9775   3.9779   3.9781   3.9782
     3.9785   3.9786   3.9788   3.9792   4.2319   4.2321   4.2330   4.2333
     4.2334   4.2334   4.2335   4.2336   4.2338   4.2339   4.2340   4.2341
     4.2341   4.2345   4.2353   4.2355   4.4267   4.4267   4.4267   4.4267
     4.7475   4.7477   4.7485   4.7485   5.2390   5.2390   5.2390   5.2390
     5.3447   5.3451   5.3453   5.3455   5.3457   5.3459   5.3460   5.3463
     5.4211   5.4219   5.4220   5.4221   5.4225   5.4226   5.4227   5.4235
     5.4389   5.4397   5.4400   5.4403   5.4403   5.4404   5.4404   5.4405
     5.4407   5.4408   5.4408   5.4409   5.4410   5.4411   5.4416   5.4425
     5.5638   5.5639   5.9622   5.9623   5.9623   5.9624   6.2000   6.2002
     6.2002   6.2005   6.2011   6.2012   6.2012   6.2015   6.3309   6.3315
     6.3317   6.3319   6.3320   6.3322   6.3324   6.3331   6.4779   6.4779
     6.4779   6.4779   6.4781   6.4781   6.4782   6.4782   6.5937   6.5941
     6.5951   6.5955   6.6436   6.6437   6.6437   6.6437   6.6926   6.6926
     6.6927   6.6927   6.6929   6.6929   6.6929   6.6931   6.8218   6.8225
     6.8231   6.8236   6.8408   6.8409   7.5997   7.5998   7.5998   7.5998
     7.7378   7.7379   7.7379   7.7379   7.7793   7.7802   7.7802   7.7803
     7.7803   7.7804   7.7805   7.7814   7.8464   7.8465   7.8465   7.8465
     7.8466   7.8466   7.8467   7.8467   7.9359   7.9365   7.9365   7.9366
     7.9370   7.9370   7.9371   7.9377   8.2073   8.2083   8.2085   8.2088
     8.2090   8.2091   8.2092   8.2092   8.2093   8.2094   8.2095   8.2095
     8.2098   8.2101   8.2103   8.2113   8.2300   8.2300   8.4161   8.4163
     8.4911   8.4911   8.4913   8.4913   8.6308   8.6308   8.6308   8.6308
     8.6310   8.6310   8.6311   8.6311   8.6669   8.6670   8.6670   8.6670
     8.6835   8.6837   8.6848   8.6849   8.6850   8.6850   8.6852   8.6852
     8.6852   8.6852   8.6853   8.6854   8.6855   8.6857   8.6867   8.6870
     8.7079   8.7079   8.7080   8.7081   9.0715   9.0716   9.0781   9.0792
     9.0793   9.0794   9.0794   9.0794   9.0796   9.0807   9.1732   9.1741
     9.1742   9.1745   9.1745   9.1748   9.1750   9.1759   9.3068   9.3070
     9.3079   9.3083   9.3106   9.3108   9.3120   9.3122   9.3746   9.3750
     9.3754   9.3756   9.3756   9.3757   9.3757   9.3758   9.3758   9.3759
     9.3759   9.3760   9.3761   9.3762   9.3767   9.3771   9.5503   9.5521
     9.5522   9.5522   9.5523   9.5523   9.5524   9.5538   9.5643   9.5643
     9.5643   9.5644   9.5644   9.5645   9.5645   9.5651   9.5923   9.5924
     9.5924   9.5924  10.1726  10.1727  10.1727  10.1728

          k = 0.3333 0.0000 0.0000 ( 83060 PWs)   bands (ev):

   -14.2714 -14.2690 -14.2689 -14.2689 -14.2688 -14.2643 -14.2643 -14.2643
   -14.2642 -14.2599 -14.2598 -14.2598 -14.2598 -14.2372 -14.2372 -14.2372
   -14.2372 -14.2316 -14.2316 -14.2264 -14.2263 -14.2263 -14.2263 -14.2066
   -14.2065 -14.2064 -14.2064 -14.1999 -14.1860 -14.1859 -14.1858 -14.1857
   -14.1643 -14.1640 -14.1640 -14.1639 -14.1618 -14.1618 -14.1617 -14.1616
   -14.1380 -14.1376 -14.1375 -14.1375 -14.1371 -14.1370 -14.1370 -14.1366
   -14.1186 -14.1186 -14.1186 -14.1184 -14.0997 -14.0996 -14.0988 -14.0964
   -14.0964 -14.0964 -14.0964 -14.0676 -14.0675 -14.0675 -14.0674 -14.0525
   -14.0524 -14.0524 -14.0523 -14.0476 -14.0323 -14.0321 -14.0321 -14.0321
   -14.0309 -14.0309 -14.0308 -14.0306 -14.0299 -14.0200 -14.0200 -14.0200
   -14.0199 -14.0196 -14.0195 -14.0184 -14.0183 -14.0183 -14.0183 -14.0183
   -14.0183 -14.0183 -14.0182 -14.0172 -14.0172 -14.0171 -14.0171 -14.0083
   -14.0028 -14.0028 -14.0028 -14.0027 -13.9945 -13.9944 -13.9944 -13.9944
   -13.9830 -13.9829 -13.9829 -13.9829 -13.9822 -13.9672 -13.9668 -13.9668
   -13.9667 -13.9665 -13.9664 -13.9664 -13.9664 -13.9581 -13.9569 -13.9565
   -13.9565 -13.9565 -13.9499 -13.9497 -13.9497 -13.9497 -13.9494 -13.9492
   -13.9492 -13.9491 -13.9481 -13.9481 -13.9481 -13.9475 -13.9473 -13.9472
   -13.9471 -13.9471 -13.9454 -13.9451 -13.9451 -13.9450 -13.9436 -13.9433
   -13.9433 -13.9433 -13.9427 -13.9427 -13.9427 -13.9423 -13.9406 -13.9405
   -13.9384 -13.9381 -13.9380 -13.9380 -13.9365 -13.9365 -13.9364 -13.9363
   -13.9283 -13.9243 -13.9215 -13.9215 -13.9177 -13.9177 -13.9177 -13.9176
   -13.9163 -13.9162 -13.9162 -13.9161 -13.9161 -13.9150 -13.9150 -13.9149
   -13.9149 -13.9125 -13.9123 -13.9122 -13.9122 -13.9100 -13.9091 -13.9087
   -13.9087 -13.9085 -13.9017 -13.9016 -13.9013 -13.9013 -13.9013 -13.9013
   -13.9012 -13.9009 -13.9009 -13.9008 -13.9007 -13.9007 -13.9007 -13.9004
   -13.9002 -13.8995 -13.8995 -13.8993 -13.8991 -13.8991 -13.8990 -13.8985
   -13.8983 -13.8962 -13.8949 -13.8948 -13.8947 -13.8935 -13.8931 -13.8931
   -13.8931 -13.8930 -13.8929 -13.8927 -13.8927 -13.8927 -13.8926 -13.8922
   -13.8922 -13.8920 -13.8917 -13.8917 -13.8916 -13.8915 -13.8903 -13.8903
   -13.8903 -13.8901 -13.8901 -13.8895 -13.8895 -13.8894 -13.8890 -13.8884
   -13.8883 -13.8882 -13.8881 -13.8878 -13.8875 -13.8874 -13.8874 -13.8873
   -13.8872 -13.8871 -13.8871 -13.8871 -13.8867 -13.8866 -13.8866 -13.8865
   -13.8864 -13.8863 -13.8863 -13.8862 -13.8858 -13.8858 -13.8854 -13.8851
   -13.8846 -13.8844 -13.8843 -13.8836 -13.8830 -13.8787 -10.1349  -9.7695
    -9.6688  -9.6688  -9.6688  -9.6687  -9.3271  -9.3270  -9.3270  -9.3269
    -9.2313  -9.2313  -9.2313  -9.2312  -8.9256  -8.9255  -8.9255  -8.9254
    -8.4592  -8.4444  -8.4444  -8.4444  -8.4443  -8.3931  -8.3931  -8.3930
    -8.3929  -8.2438  -8.2436  -8.2436  -8.2434  -8.1842  -8.1841  -8.1840
    -8.1839  -8.1761  -8.1759  -8.1759  -8.1757  -8.0617  -8.0615  -8.0615
    -8.0612  -7.8561  -7.8558  -7.8558  -7.8555  -7.8496  -7.8493  -7.8493
    -7.8490  -7.7276  -7.4669  -7.4669  -7.4669  -7.4669  -7.3208  -7.3208
    -7.1623  -7.1623  -7.1622  -7.1622  -7.0284  -7.0283  -7.0180  -7.0178
    -7.0178  -7.0177  -6.9042  -6.9040  -6.9040  -6.9038  -6.8622  -6.8013
    -6.8011  -6.8011  -6.8008  -6.7549  -6.7450  -6.7447  -6.7446  -6.7443
    -6.5563  -6.5560  -6.5560  -6.5559  -6.5393  -6.5393  -6.5393  -6.5392
    -6.5354  -6.5348  -6.5348  -6.5341  -6.5059  -6.5052  -6.5052  -6.5050
    -6.5030  -6.5027  -6.5027  -6.5017  -6.4746  -6.4741  -6.4741  -6.4734
    -6.4330  -6.4330   0.3947   0.4246   0.7548   0.7556   0.7556   0.7564
     0.9532   1.2346   1.2356   1.2357   1.2367   1.3275   1.3277   1.3277
     1.3278   1.3610   1.3615   1.3615   1.3619   1.3905   1.3916   1.3916
     1.3927   1.8767   1.8783   1.8784   1.8786   1.8787   1.8789   1.8790
     1.8808   1.9341   2.1890   2.1893   2.1893   2.1896   2.6562   2.6568
     2.6569   2.6575   3.3897   3.3902   3.3902   3.3906   3.4929   3.4931
     3.4931   3.4932   3.6184   3.6191   3.6192   3.6199   3.8614   3.8615
     3.8615   3.8617   4.0522   4.0524   4.0525   4.0527   4.2311   4.2316
     4.2316   4.2320   4.2769   4.2769   4.2770   4.2770   4.3367   4.3370
     4.3371   4.3375   4.5208   4.5210   4.5210   4.5211   4.7107   4.7115
     4.7116   4.7124   4.9005   4.9014   4.9014   4.9023   4.9797   4.9799
     5.0481   5.0964   5.0972   5.0972   5.0978   5.1018   5.1020   5.1021
     5.1025   5.1087   5.1292   5.1296   5.1298   5.1302   5.2221   5.3532
     5.3533   5.4831   5.5462   5.5463   5.5463   5.5463   5.7151   5.7152
     5.7822   5.7885   5.7886   5.7887   5.7887   5.8236   5.8244   5.8245
     5.8254   5.9365   5.9367   5.9368   5.9371   5.9823   5.9830   5.9830
     5.9837   6.1914   6.1916   6.1916   6.1916   6.3140   6.3674   6.3677
     6.3677   6.3680   6.4326   6.4327   6.4328   6.4329   6.6294   6.6297
     6.6298   6.6301   6.6756   6.7075   6.7078   6.7079   6.7081   6.7314
     6.7317   6.7318   6.7321   6.7596   6.7766   6.7770   6.7770   6.7774
     6.8111   6.8112   6.8330   6.8331   6.9111   6.9112   6.9112   6.9113
     6.9260   7.1579   7.1581   7.1583   7.1585   7.1604   7.1606   7.1607
     7.1607   7.3745   7.4116   7.4121   7.4121   7.4126   7.4590   7.4592
     7.4593   7.4595   7.7837   7.7840   7.7845   7.7847   7.7964   7.7965
     7.7965   7.7966   7.8628   7.8636   7.8636   7.8643   7.9311   7.9312
     7.9312   7.9312   7.9478   7.9480   7.9693   7.9963   7.9965   7.9970
     7.9972   8.1111   8.1112   8.1114   8.1116   8.2331   8.2338   8.2338
     8.2339   8.2342   8.2344   8.2344   8.2353   8.2461   8.2462   8.2462
     8.2463   8.3090   8.3092   8.3093   8.3094   8.4070   8.4071   8.4072
     8.4073   8.4953   8.4956   8.4956   8.4958   8.5764   8.5766   8.5766
     8.5767   8.6538   8.6543   8.6544   8.6549   8.7454   8.7640   8.7640
     8.8646   8.8646   8.8647   8.8648   8.8779   8.8782   8.8782   8.8785
     8.8979   8.8980   8.8980   8.8982   8.9866   8.9867   8.9870   8.9871
     8.9915   8.9916   8.9916   8.9918   8.9987   8.9991   8.9992   8.9997
     9.0334   9.0336   9.0339   9.0342   9.1440   9.1444   9.1445   9.1449
     9.1727   9.1731   9.1732   9.1735   9.3020   9.3021   9.3021   9.3021
     9.3068   9.3069   9.3069   9.3070   9.3681   9.3683   9.3684   9.3685
     9.3692   9.3693   9.3695   9.3695   9.4962   9.4962   9.6088   9.6089
     9.6089   9.6090   9.6808   9.6809   9.6880   9.6881   9.6881   9.6881
     9.7476   9.7476   9.7477   9.7477   9.8144   9.8145   9.8145   9.8146
     9.9194   9.9194   9.9195   9.9195  10.0258  10.3768

          k = 0.3333 0.0000-0.3248 ( 83068 PWs)   bands (ev):

   -14.2747 -14.2746 -14.2727 -14.2726 -14.2726 -14.2726 -14.2584 -14.2584
   -14.2497 -14.2496 -14.2496 -14.2496 -14.2461 -14.2460 -14.2460 -14.2460
   -14.2448 -14.2447 -14.2412 -14.2412 -14.2222 -14.2221 -14.2221 -14.2221
   -14.1960 -14.1960 -14.1862 -14.1861 -14.1861 -14.1861 -14.1837 -14.1837
   -14.1803 -14.1802 -14.1802 -14.1799 -14.1653 -14.1652 -14.1447 -14.1445
   -14.1445 -14.1445 -14.1412 -14.1411 -14.1411 -14.1409 -14.1296 -14.1295
   -14.1295 -14.1293 -14.1107 -14.1106 -14.1051 -14.1051 -14.0872 -14.0871
   -14.0779 -14.0778 -14.0778 -14.0777 -14.0764 -14.0763 -14.0763 -14.0762
   -14.0479 -14.0478 -14.0355 -14.0353 -14.0353 -14.0353 -14.0323 -14.0323
   -14.0287 -14.0286 -14.0209 -14.0209 -14.0200 -14.0198 -14.0198 -14.0198
   -14.0197 -14.0197 -14.0197 -14.0195 -14.0189 -14.0188 -14.0180 -14.0179
   -14.0178 -14.0178 -14.0178 -14.0177 -14.0176 -14.0176 -14.0176 -14.0174
   -14.0171 -14.0170 -14.0170 -14.0167 -13.9985 -13.9984 -13.9851 -13.9851
   -13.9818 -13.9817 -13.9817 -13.9817 -13.9769 -13.9768 -13.9705 -13.9703
   -13.9702 -13.9702 -13.9641 -13.9638 -13.9638 -13.9637 -13.9605 -13.9603
   -13.9554 -13.9553 -13.9514 -13.9513 -13.9513 -13.9513 -13.9492 -13.9488
   -13.9487 -13.9487 -13.9480 -13.9480 -13.9478 -13.9472 -13.9466 -13.9463
   -13.9463 -13.9463 -13.9444 -13.9441 -13.9437 -13.9434 -13.9434 -13.9434
   -13.9431 -13.9430 -13.9425 -13.9423 -13.9423 -13.9423 -13.9420 -13.9419
   -13.9396 -13.9394 -13.9361 -13.9361 -13.9361 -13.9359 -13.9330 -13.9327
   -13.9317 -13.9311 -13.9177 -13.9177 -13.9167 -13.9167 -13.9162 -13.9161
   -13.9161 -13.9160 -13.9159 -13.9159 -13.9158 -13.9158 -13.9148 -13.9148
   -13.9134 -13.9130 -13.9122 -13.9120 -13.9120 -13.9119 -13.9077 -13.9071
   -13.9061 -13.9060 -13.9059 -13.9058 -13.9042 -13.9040 -13.9019 -13.9018
   -13.9018 -13.9017 -13.9017 -13.9014 -13.9010 -13.9006 -13.8999 -13.8995
   -13.8995 -13.8995 -13.8993 -13.8991 -13.8991 -13.8982 -13.8970 -13.8955
   -13.8953 -13.8953 -13.8953 -13.8952 -13.8947 -13.8945 -13.8941 -13.8939
   -13.8930 -13.8930 -13.8930 -13.8929 -13.8919 -13.8918 -13.8917 -13.8917
   -13.8916 -13.8916 -13.8913 -13.8913 -13.8912 -13.8912 -13.8908 -13.8900
   -13.8895 -13.8895 -13.8894 -13.8893 -13.8893 -13.8892 -13.8891 -13.8890
   -13.8889 -13.8889 -13.8882 -13.8882 -13.8881 -13.8881 -13.8879 -13.8878
   -13.8878 -13.8877 -13.8876 -13.8875 -13.8872 -13.8871 -13.8869 -13.8868
   -13.8865 -13.8863 -13.8862 -13.8861 -13.8860 -13.8858 -13.8855 -13.8850
   -13.8847 -13.8847 -13.8844 -13.8835 -13.8832 -13.8791 -10.0162 -10.0161
    -9.6565  -9.6564  -9.5547  -9.5547  -9.5547  -9.5546  -9.2215  -9.2214
    -9.2214  -9.2213  -9.1243  -9.1241  -8.8131  -8.8129  -8.7712  -8.7711
    -8.7710  -8.7710  -8.5151  -8.5150  -8.5149  -8.5148  -8.4014  -8.4012
    -8.3881  -8.3880  -8.3880  -8.3879  -8.1920  -8.1918  -8.1918  -8.1916
    -8.1424  -8.1423  -8.1422  -8.1420  -8.0369  -8.0365  -7.9226  -7.9224
    -7.9223  -7.9221  -7.8462  -7.8459  -7.8459  -7.8456  -7.7554  -7.7552
    -7.7432  -7.7431  -7.5153  -7.5151  -7.2760  -7.2760  -7.2759  -7.2758
    -7.2375  -7.2374  -7.2187  -7.2186  -7.2186  -7.2185  -7.0271  -7.0269
    -7.0269  -7.0267  -6.9689  -6.9687  -6.9687  -6.9685  -6.9647  -6.9645
    -6.7467  -6.7464  -6.6314  -6.6312  -6.6312  -6.6310  -6.6119  -6.6115
    -6.5923  -6.5919  -6.5848  -6.5846  -6.5548  -6.5544  -6.5544  -6.5540
    -6.5471  -6.5468  -6.5468  -6.5463  -6.5129  -6.5123  -6.5123  -6.5117
    -6.5061  -6.5054  -6.4958  -6.4954  -6.4954  -6.4947  -6.4606  -6.4602
    -6.4442  -6.4439   0.6514   0.6517   0.6611   0.6612   0.8180   0.8187
     0.8188   0.8196   1.0501   1.0511   1.0512   1.0522   1.0734   1.0740
     1.5132   1.5137   1.5137   1.5143   1.5694   1.5696   1.5696   1.5698
     1.7329   1.7344   1.7785   1.7798   1.7799   1.7813   1.9167   1.9174
     2.2762   2.2768   2.2769   2.2775   2.3163   2.3165   2.3952   2.3957
     2.9141   2.9144   2.9145   2.9149   3.1325   3.1331   3.1333   3.1339
     3.4989   3.4992   3.4993   3.4996   3.6176   3.6179   3.8329   3.8332
     3.8335   3.8339   4.1903   4.1905   4.1906   4.1908   4.2262   4.2267
     4.4533   4.4539   4.4540   4.4545   4.5344   4.5345   4.5880   4.5884
     4.5996   4.6002   4.6003   4.6009   4.6765   4.6770   4.6771   4.6773
     4.6792   4.6794   4.7876   4.7889   4.8176   4.8179   4.9787   4.9792
     4.9795   4.9800   5.0294   5.0300   5.0818   5.0825   5.1144   5.1150
     5.1330   5.1330   5.2435   5.2436   5.2774   5.2782   5.2782   5.2790
     5.3331   5.3337   5.3339   5.3346   5.4312   5.4319   5.6273   5.6280
     5.6281   5.6289   5.6937   5.6944   5.6945   5.6952   5.7844   5.7852
     5.7852   5.7860   5.9537   5.9544   5.9544   5.9552   5.9975   5.9982
     6.0702   6.0704   6.0706   6.0709   6.2143   6.2144   6.2145   6.2147
     6.3705   6.3710   6.4687   6.4692   6.4693   6.4698   6.5053   6.5054
     6.5385   6.5385   6.5445   6.5450   6.5451   6.5456   6.5558   6.5564
     6.5710   6.5714   6.7669   6.7672   6.8804   6.8807   6.8809   6.8814
     7.1043   7.1044   7.1045   7.1046   7.1304   7.1310   7.1310   7.1316
     7.2724   7.2725   7.3087   7.3090   7.3999   7.4001   7.4090   7.4097
     7.4098   7.4103   7.4134   7.4137   7.4426   7.4429   7.4432   7.4436
     7.5295   7.5298   7.5299   7.5302   7.5476   7.5478   7.6609   7.6611
     7.7520   7.7521   7.7522   7.7524   7.8344   7.8350   7.8893   7.8896
     7.8898   7.8901   7.9019   7.9027   8.0056   8.0057   8.0058   8.0059
     8.0274   8.0275   8.0609   8.0609   8.1326   8.1328   8.1500   8.1502
     8.1504   8.1506   8.2195   8.2200   8.2200   8.2206   8.2794   8.2796
     8.3484   8.3486   8.3795   8.3801   8.3802   8.3809   8.4470   8.4472
     8.4473   8.4475   8.4645   8.4646   8.5509   8.5512   8.5513   8.5516
     8.7072   8.7073   8.7075   8.7076   8.7113   8.7114   8.7115   8.7117
     8.7500   8.7502   8.7527   8.7529   8.8683   8.8688   8.8688   8.8692
     8.8695   8.8696   8.8698   8.8700   8.9267   8.9269   8.9273   8.9275
     8.9421   8.9425   9.0120   9.0121   9.0122   9.0123   9.0424   9.0428
     9.0526   9.0529   9.0530   9.0534   9.2343   9.2346   9.2399   9.2402
     9.2402   9.2406   9.3163   9.3167   9.3452   9.3454   9.3454   9.3456
     9.3788   9.3788   9.3789   9.3789   9.3796   9.3799   9.3976   9.3977
     9.3978   9.3978   9.4543   9.4544   9.4779   9.4781   9.4861   9.4861
     9.4862   9.4863   9.5003   9.5003   9.5003   9.5004   9.6316   9.6319
     9.6579   9.6580   9.8255   9.8255   9.8255   9.8256   9.8813   9.8814
     9.8814   9.8814   9.9967   9.9968  10.2554  10.2555

          k = 0.3333-0.3248-0.3248 ( 83032 PWs)   bands (ev):

   -14.2667 -14.2666 -14.2666 -14.2666 -14.2665 -14.2665 -14.2665 -14.2665
   -14.2626 -14.2626 -14.2625 -14.2625 -14.2487 -14.2487 -14.2487 -14.2486
   -14.2419 -14.2419 -14.2325 -14.2325 -14.2325 -14.2325 -14.1943 -14.1941
   -14.1941 -14.1941 -14.1869 -14.1868 -14.1820 -14.1820 -14.1820 -14.1819
   -14.1819 -14.1819 -14.1819 -14.1818 -14.1575 -14.1574 -14.1574 -14.1573
   -14.1573 -14.1573 -14.1573 -14.1570 -14.1201 -14.1200 -14.1164 -14.1164
   -14.1164 -14.1163 -14.1042 -14.1041 -14.1041 -14.1040 -14.0973 -14.0973
   -14.0973 -14.0973 -14.0934 -14.0933 -14.0546 -14.0543 -14.0543 -14.0543
   -14.0543 -14.0543 -14.0543 -14.0541 -14.0365 -14.0364 -14.0353 -14.0352
   -14.0352 -14.0351 -14.0294 -14.0293 -14.0293 -14.0291 -14.0193 -14.0193
   -14.0192 -14.0192 -14.0183 -14.0183 -14.0183 -14.0182 -14.0172 -14.0171
   -14.0168 -14.0168 -14.0168 -14.0167 -14.0167 -14.0167 -14.0167 -14.0166
   -13.9928 -13.9927 -13.9927 -13.9927 -13.9927 -13.9927 -13.9926 -13.9926
   -13.9890 -13.9890 -13.9889 -13.9889 -13.9751 -13.9749 -13.9749 -13.9749
   -13.9662 -13.9661 -13.9597 -13.9589 -13.9588 -13.9588 -13.9588 -13.9588
   -13.9588 -13.9587 -13.9557 -13.9556 -13.9556 -13.9550 -13.9489 -13.9488
   -13.9459 -13.9459 -13.9456 -13.9449 -13.9448 -13.9448 -13.9448 -13.9447
   -13.9447 -13.9447 -13.9443 -13.9442 -13.9442 -13.9442 -13.9442 -13.9441
   -13.9440 -13.9440 -13.9427 -13.9425 -13.9425 -13.9424 -13.9414 -13.9412
   -13.9412 -13.9411 -13.9386 -13.9385 -13.9384 -13.9384 -13.9343 -13.9343
   -13.9343 -13.9337 -13.9193 -13.9193 -13.9193 -13.9192 -13.9149 -13.9147
   -13.9146 -13.9146 -13.9146 -13.9146 -13.9146 -13.9145 -13.9124 -13.9123
   -13.9117 -13.9115 -13.9115 -13.9114 -13.9104 -13.9096 -13.9096 -13.9095
   -13.9024 -13.9015 -13.9015 -13.9013 -13.9009 -13.9008 -13.9007 -13.9007
   -13.8997 -13.8997 -13.8996 -13.8996 -13.8996 -13.8996 -13.8996 -13.8996
   -13.8995 -13.8995 -13.8995 -13.8991 -13.8990 -13.8976 -13.8966 -13.8965
   -13.8964 -13.8959 -13.8959 -13.8959 -13.8957 -13.8933 -13.8930 -13.8929
   -13.8929 -13.8929 -13.8929 -13.8928 -13.8928 -13.8928 -13.8928 -13.8926
   -13.8922 -13.8917 -13.8916 -13.8916 -13.8914 -13.8914 -13.8913 -13.8912
   -13.8912 -13.8911 -13.8905 -13.8903 -13.8902 -13.8897 -13.8896 -13.8894
   -13.8885 -13.8885 -13.8884 -13.8884 -13.8884 -13.8884 -13.8883 -13.8882
   -13.8880 -13.8880 -13.8880 -13.8880 -13.8879 -13.8878 -13.8876 -13.8872
   -13.8857 -13.8856 -13.8855 -13.8854 -13.8853 -13.8850 -13.8846 -13.8846
   -13.8846 -13.8846 -13.8844 -13.8844 -13.8841 -13.8795  -9.8981  -9.8980
    -9.8980  -9.8979  -9.5448  -9.5447  -9.5447  -9.5446  -9.0246  -9.0245
    -9.0245  -9.0244  -9.0244  -9.0243  -9.0243  -9.0242  -8.7268  -8.7266
    -8.7266  -8.7265  -8.7265  -8.7264  -8.7264  -8.7262  -8.5880  -8.5879
    -8.3734  -8.3732  -8.3445  -8.3444  -8.3444  -8.3442  -8.0005  -8.0000
    -8.0000  -7.9999  -7.9999  -7.9999  -7.9999  -7.9993  -7.8815  -7.8813
    -7.8482  -7.8482  -7.8481  -7.8480  -7.7725  -7.7722  -7.7722  -7.7719
    -7.6498  -7.6496  -7.6496  -7.6493  -7.5147  -7.5146  -7.3702  -7.3702
    -7.3701  -7.3701  -7.2060  -7.2060  -7.0734  -7.0734  -7.0733  -7.0733
    -6.9068  -6.9066  -6.9066  -6.9065  -6.9064  -6.9064  -6.9064  -6.9061
    -6.7382  -6.7377  -6.7377  -6.7377  -6.7376  -6.7376  -6.7375  -6.7370
    -6.5741  -6.5740  -6.5363  -6.5360  -6.5359  -6.5358  -6.5218  -6.5206
    -6.5206  -6.5205  -6.5205  -6.5205  -6.5204  -6.5193  -6.5123  -6.5121
    -6.5120  -6.5114  -6.4709  -6.4703  -6.4702  -6.4698  -6.4690  -6.4690
    -6.4689  -6.4685   0.6180   0.6186   0.8857   0.8860   0.8860   0.8864
     0.9029   0.9029   0.9030   0.9032   1.0144   1.0153   1.0153   1.0163
     1.3344   1.3366   1.3366   1.3366   1.3367   1.3367   1.3367   1.3390
     1.9818   1.9831   1.9831   1.9845   2.2637   2.2642   2.3383   2.3396
     2.3397   2.3397   2.3397   2.3398   2.3398   2.3411   2.5049   2.5054
     2.5054   2.5054   2.5054   2.5054   2.5055   2.5060   3.1434   3.1437
     3.8613   3.8620   3.8620   3.8626   4.0355   4.0359   4.0359   4.0363
     4.0719   4.0724   4.0726   4.0727   4.0728   4.0728   4.0731   4.0736
     4.0910   4.0911   4.2671   4.2676   4.2676   4.2680   4.5651   4.5663
     4.5664   4.5664   4.5666   4.5666   4.5667   4.5679   4.7119   4.7119
     4.7120   4.7120   4.7846   4.7851   4.7852   4.7857   4.8032   4.8036
     4.8036   4.8040   5.0706   5.0717   5.0717   5.0719   5.0719   5.0721
     5.0722   5.0733   5.3763   5.3763   5.3763   5.3763   5.4972   5.4986
     5.4987   5.4987   5.4989   5.4989   5.4989   5.5004   5.6748   5.6748
     5.7145   5.7146   5.7693   5.7693   5.7693   5.7694   5.8165   5.8170
     5.8170   5.8175   5.8730   5.8733   5.8733   5.8738   6.0365   6.0368
     6.0369   6.0373   6.2903   6.2904   6.3075   6.3076   6.3077   6.3078
     6.3760   6.3764   6.3764   6.3765   6.3766   6.3766   6.3768   6.3771
     6.3995   6.4001   6.4001   6.4010   6.6765   6.6766   6.6766   6.6767
     6.7379   6.7384   6.7717   6.7721   6.8426   6.8427   6.8427   6.8427
     6.8872   6.8874   6.8875   6.8878   6.9159   6.9162   6.9548   6.9549
     7.1700   7.1702   7.1704   7.1704   7.1706   7.1706   7.1708   7.1711
     7.2554   7.2554   7.4627   7.4629   7.4629   7.4630   7.7188   7.7199
     7.7199   7.7200   7.7201   7.7201   7.7202   7.7214   7.8399   7.8401
     7.8402   7.8404   7.9654   7.9655   7.9656   7.9657   7.9965   7.9968
     7.9968   7.9971   8.0378   8.0388   8.0389   8.0389   8.0390   8.0390
     8.0390   8.0401   8.1090   8.1096   8.1099   8.1099   8.1100   8.1101
     8.1104   8.1111   8.1440   8.1445   8.1445   8.1449   8.2147   8.2147
     8.2148   8.2149   8.3052   8.3053   8.3054   8.3056   8.5095   8.5095
     8.5097   8.5097   8.5098   8.5098   8.5099   8.5099   8.5183   8.5183
     8.5185   8.5185   8.5187   8.5188   8.5190   8.5191   8.7247   8.7250
     8.7250   8.7255   8.8000   8.8004   8.8004   8.8008   8.9313   8.9317
     8.9321   8.9321   8.9322   8.9322   8.9327   8.9331   9.0026   9.0027
     9.0546   9.0549   9.0550   9.0553   9.0865   9.0870   9.0870   9.0875
     9.1094   9.1095   9.2022   9.2023   9.2040   9.2041   9.2435   9.2439
     9.2439   9.2444   9.2589   9.2594   9.2594   9.2594   9.2595   9.2595
     9.2596   9.2601   9.2934   9.2935   9.3769   9.3770   9.4453   9.4454
     9.4454   9.4454   9.5173   9.5173   9.5175   9.5175   9.5175   9.5175
     9.5177   9.5177   9.5781   9.5781   9.5781   9.5782   9.5878   9.5878
     9.5878   9.5878   9.5879   9.5879   9.5880   9.5881   9.9747   9.9747
     9.9747   9.9748  10.1644  10.1645  10.1645  10.1646

     highest occupied level (ev):    10.4931

!    total energy              =  -13225.90718418 Ry
     estimated scf accuracy    <          2.0E-09 Ry

     The total energy is the sum of the following terms:
     one-electron contribution =   -4400.32752367 Ry
     hartree contribution      =    3316.27535980 Ry
     xc contribution           =   -3278.83827245 Ry
     ewald contribution        =   -8863.01674786 Ry

     convergence has been achieved in  14 iterations

     Forces acting on atoms (cartesian axes, Ry/au):

     atom    1 type  1   force =     0.00195275    0.00049135    0.00049135
     atom    2 type  1   force =    -0.00050629   -0.00000614   -0.00000614
     atom    3 type  1   force =     0.00185666   -0.00042911   -0.00042911
     atom    4 type  1   force =     0.00006609   -0.00001098   -0.00001479
     atom    5 type  1   force =    -0.00001596    0.00001018   -0.00000090
     atom    6 type  1   force =     0.00006521    0.00003111    0.00001525
     atom    7 type  1   force =     0.00010363    0.00019887   -0.00014746
     atom    8 type  1   force =    -0.00006695    0.00004257   -0.00000408
     atom    9 type  1   force =     0.00010250   -0.00011289    0.00013819
     atom   10 type  1   force =     0.00006609   -0.00001479   -0.00001098
     atom   11 type  1   force =    -0.00001596   -0.00000090    0.00001018
     atom   12 type  1   force =     0.00006521    0.00001525    0.00003111
     atom   13 type  1   force =     0.00004471    0.00001637    0.00001637
     atom   14 type  1   force =     0.00003392    0.00001644    0.00001644
     atom   15 type  1   force =     0.00004344    0.00001491    0.00001491
     atom   16 type  1   force =     0.00004981    0.00007170   -0.00002063
     atom   17 type  1   force =     0.00001706    0.00003401    0.00001883
     atom   18 type  1   force =     0.00005016   -0.00000338    0.00005760
     atom   19 type  1   force =     0.00010363   -0.00014746    0.00019887
     atom   20 type  1   force =    -0.00006695   -0.00000408    0.00004257
     atom   21 type  1   force =     0.00010250    0.00013819   -0.00011289
     atom   22 type  1   force =     0.00004981   -0.00002063    0.00007170
     atom   23 type  1   force =     0.00001706    0.00001883    0.00003401
     atom   24 type  1   force =     0.00005016    0.00005760   -0.00000338
     atom   25 type  1   force =     0.00007202    0.00006070    0.00006070
     atom   26 type  1   force =    -0.00002229    0.00003763    0.00003763
     atom   27 type  1   force =     0.00006877    0.00001562    0.00001562
     atom   28 type  1   force =     0.00096039    0.00001757    0.00001757
     atom   29 type  1   force =    -0.00034257    0.00020017    0.00020017
     atom   30 type  1   force =    -0.00034117   -0.00016154   -0.00016154
     atom   31 type  1   force =     0.00034826   -0.00001931    0.00001222
     atom   32 type  1   force =    -0.00029393   -0.00011874    0.00011075
     atom   33 type  1   force =    -0.00029340    0.00008093   -0.00008547
     atom   34 type  1   force =    -0.00003486    0.00003685    0.00001619
     atom   35 type  1   force =    -0.00006743    0.00005523    0.00003066
     atom   36 type  1   force =    -0.00006843    0.00001900    0.00000255
     atom   37 type  1   force =     0.00034826    0.00001222   -0.00001931
     atom   38 type  1   force =    -0.00029393    0.00011075   -0.00011874
     atom   39 type  1   force =    -0.00029340   -0.00008547    0.00008093
     atom   40 type  1   force =    -0.00006444   -0.00001144   -0.00001144
     atom   41 type  1   force =    -0.00006823   -0.00005930   -0.00005930
     atom   42 type  1   force =    -0.00006706    0.00003481    0.00003481
     atom   43 type  1   force =    -0.00004277    0.00003582   -0.00001293
     atom   44 type  1   force =    -0.00006394    0.00004033   -0.00001615
     atom   45 type  1   force =    -0.00006532    0.00003291   -0.00001010
     atom   46 type  1   force =    -0.00003486    0.00001619    0.00003685
     atom   47 type  1   force =    -0.00006743    0.00003066    0.00005523
     atom   48 type  1   force =    -0.00006843    0.00000255    0.00001900
     atom   49 type  1   force =    -0.00004277   -0.00001293    0.00003582
     atom   50 type  1   force =    -0.00006394   -0.00001615    0.00004033
     atom   51 type  1   force =    -0.00006532   -0.00001010    0.00003291
     atom   52 type  1   force =    -0.00004654    0.00003054    0.00003054
     atom   53 type  1   force =    -0.00006239    0.00003550    0.00003550
     atom   54 type  1   force =    -0.00006308    0.00002534    0.00002534
     atom   55 type  2   force =    -0.00027048   -0.00098103   -0.00098103
     atom   56 type  2   force =     0.00006023   -0.00089070   -0.00089070
     atom   57 type  2   force =     0.00006204   -0.00107024   -0.00107024
     atom   58 type  2   force =    -0.00001603   -0.00090788   -0.00096495
     atom   59 type  2   force =    -0.00000686   -0.00089783   -0.00095268
     atom   60 type  2   force =    -0.00000681   -0.00091807   -0.00097686
     atom   61 type  2   force =    -0.00010549   -0.00064508   -0.00095298
     atom   62 type  2   force =     0.00004480   -0.00067747   -0.00094317
     atom   63 type  2   force =     0.00004501   -0.00061302   -0.00096212
     atom   64 type  2   force =    -0.00001603   -0.00096495   -0.00090788
     atom   65 type  2   force =    -0.00000686   -0.00095268   -0.00089783
     atom   66 type  2   force =    -0.00000681   -0.00097686   -0.00091807
     atom   67 type  2   force =    -0.00001596   -0.00089681   -0.00089681
     atom   68 type  2   force =    -0.00000886   -0.00089674   -0.00089674
     atom   69 type  2   force =    -0.00000872   -0.00089700   -0.00089700
     atom   70 type  2   force =    -0.00003283   -0.00064685   -0.00090487
     atom   71 type  2   force =    -0.00000043   -0.00064589   -0.00089649
     atom   72 type  2   force =    -0.00000005   -0.00064800   -0.00091320
     atom   73 type  2   force =    -0.00010549   -0.00095298   -0.00064508
     atom   74 type  2   force =     0.00004480   -0.00094317   -0.00067747
     atom   75 type  2   force =     0.00004501   -0.00096212   -0.00061302
     atom   76 type  2   force =    -0.00003283   -0.00090487   -0.00064685
     atom   77 type  2   force =    -0.00000043   -0.00089649   -0.00064589
     atom   78 type  2   force =    -0.00000005   -0.00091320   -0.00064800
     atom   79 type  2   force =    -0.00007866   -0.00062899   -0.00062899
     atom   80 type  2   force =     0.00003925   -0.00067403   -0.00067403
     atom   81 type  2   force =     0.00003980   -0.00058383   -0.00058383
     atom   82 type  2   force =     0.00023907    0.00126165   -0.00102840
     atom   83 type  2   force =     0.00015800    0.00070792   -0.00080842
     atom   84 type  2   force =     0.00024035    0.00015683   -0.00058952
     atom   85 type  2   force =     0.00000577    0.00099278   -0.00083293
     atom   86 type  2   force =     0.00003524    0.00099323   -0.00083560
     atom   87 type  2   force =     0.00000583    0.00099396   -0.00083819
     atom   88 type  2   force =     0.00023417    0.00024304   -0.00086816
     atom   89 type  2   force =     0.00015527    0.00078515   -0.00081776
     atom   90 type  2   force =     0.00023934    0.00132689   -0.00076811
     atom   91 type  2   force =    -0.00000255    0.00071786   -0.00103008
     atom   92 type  2   force =     0.00004561    0.00071230   -0.00102910
     atom   93 type  2   force =    -0.00000265    0.00070652   -0.00102879
     atom   94 type  2   force =     0.00001450    0.00098844   -0.00104144
     atom   95 type  2   force =     0.00002078    0.00099044   -0.00104541
     atom   96 type  2   force =     0.00001437    0.00099258   -0.00104957
     atom   97 type  2   force =    -0.00000495    0.00070482   -0.00095617
     atom   98 type  2   force =     0.00004313    0.00080571   -0.00104913
     atom   99 type  2   force =    -0.00000497    0.00090637   -0.00114234
     atom  100 type  2   force =     0.00000795    0.00070973   -0.00077754
     atom  101 type  2   force =     0.00003720    0.00070571   -0.00077188
     atom  102 type  2   force =     0.00000833    0.00070176   -0.00076676
     atom  103 type  2   force =     0.00001470    0.00097332   -0.00077713
     atom  104 type  2   force =     0.00002394    0.00097443   -0.00077771
     atom  105 type  2   force =     0.00001431    0.00097545   -0.00077836
     atom  106 type  2   force =     0.00000522    0.00077295   -0.00078367
     atom  107 type  2   force =     0.00003460    0.00077830   -0.00077471
     atom  108 type  2   force =     0.00000563    0.00078385   -0.00076643
     atom  109 type  2   force =    -0.00732532    0.00058798    0.00058798
     atom  110 type  2   force =     0.00079304    0.00073623    0.00073623
     atom  111 type  2   force =     0.00076829    0.00057382    0.00057382
     atom  112 type  2   force =    -0.00007274    0.00090616    0.00067377
     atom  113 type  2   force =     0.00003594    0.00095947    0.00070443
     atom  114 type  2   force =     0.00003594    0.00085214    0.00064271
     atom  115 type  2   force =    -0.00006980    0.00099350    0.00067432
     atom  116 type  2   force =     0.00003824    0.00094340    0.00066974
     atom  117 type  2   force =     0.00003866    0.00104372    0.00067865
     atom  118 type  2   force =    -0.00007274    0.00067377    0.00090616
     atom  119 type  2   force =     0.00003594    0.00070443    0.00095947
     atom  120 type  2   force =     0.00003594    0.00064271    0.00085214
     atom  121 type  2   force =    -0.00001598    0.00089719    0.00089719
     atom  122 type  2   force =    -0.00000934    0.00089737    0.00089737
     atom  123 type  2   force =    -0.00000961    0.00089703    0.00089703
     atom  124 type  2   force =    -0.00003370    0.00100081    0.00090667
     atom  125 type  2   force =     0.00000173    0.00099241    0.00090510
     atom  126 type  2   force =     0.00000184    0.00100921    0.00090814
     atom  127 type  2   force =    -0.00006980    0.00067432    0.00099350
     atom  128 type  2   force =     0.00003824    0.00066974    0.00094340
     atom  129 type  2   force =     0.00003866    0.00067865    0.00104372
     atom  130 type  2   force =    -0.00003370    0.00090667    0.00100081
     atom  131 type  2   force =     0.00000173    0.00090510    0.00099241
     atom  132 type  2   force =     0.00000184    0.00090814    0.00100921
     atom  133 type  2   force =    -0.00001083    0.00102023    0.00102023
     atom  134 type  2   force =    -0.00000396    0.00100648    0.00100648
     atom  135 type  2   force =    -0.00000427    0.00103399    0.00103399
     atom  136 type  2   force =     0.00023907   -0.00102840    0.00126165
     atom  137 type  2   force =     0.00015800   -0.00080842    0.00070792
     atom  138 type  2   force =     0.00024035   -0.00058952    0.00015683
     atom  139 type  2   force =    -0.00000255   -0.00103008    0.00071786
     atom  140 type  2   force =     0.00004561   -0.00102910    0.00071230
     atom  141 type  2   force =    -0.00000265   -0.00102879    0.00070652
     atom  142 type  2   force =     0.00000795   -0.00077754    0.00070973
     atom  143 type  2   force =     0.00003720   -0.00077188    0.00070571
     atom  144 type  2   force =     0.00000833   -0.00076676    0.00070176
     atom  145 type  2   force =     0.00000577   -0.00083293    0.00099278
     atom  146 type  2   force =     0.00003524   -0.00083560    0.00099323
     atom  147 type  2   force =     0.00000583   -0.00083819    0.00099396
     atom  148 type  2   force =     0.00001450   -0.00104144    0.00098844
     atom  149 type  2   force =     0.00002078   -0.00104541    0.00099044
     atom  150 type  2   force =     0.00001437   -0.00104957    0.00099258
     atom  151 type  2   force =     0.00001470   -0.00077713    0.00097332
     atom  152 type  2   force =     0.00002394   -0.00077771    0.00097443
     atom  153 type  2   force =     0.00001431   -0.00077836    0.00097545
     atom  154 type  2   force =     0.00023417   -0.00086816    0.00024304
     atom  155 type  2   force =     0.00015527   -0.00081776    0.00078515
     atom  156 type  2   force =     0.00023934   -0.00076811    0.00132689
     atom  157 type  2   force =    -0.00000495   -0.00095617    0.00070482
     atom  158 type  2   force =     0.00004313   -0.00104913    0.00080571
     atom  159 type  2   force =    -0.00000497   -0.00114234    0.00090637
     atom  160 type  2   force =     0.00000522   -0.00078367    0.00077295
     atom  161 type  2   force =     0.00003460   -0.00077471    0.00077830
     atom  162 type  2   force =     0.00000563   -0.00076643    0.00078385

     Total force =     0.015131     Total SCF correction =     0.000231
 
     init_run     :     17.76s CPU     24.23s WALL (       1 calls)
     electrons    :    750.40s CPU   1008.35s WALL (       1 calls)
     forces       :     14.84s CPU     24.25s WALL (       1 calls)

     Called by init_run:
     wfcinit      :     17.27s CPU     23.63s WALL (       1 calls)
     potinit      :      0.09s CPU      0.11s WALL (       1 calls)
     hinit0       :      0.15s CPU      0.21s WALL (       1 calls)

     Called by electrons:
     c_bands      :    717.48s CPU    971.10s WALL (      14 calls)
     sum_band     :     32.43s CPU     36.33s WALL (      14 calls)
     v_of_rho     :      0.38s CPU      0.65s WALL (      15 calls)
     mix_rho      :      0.11s CPU      0.28s WALL (      14 calls)

     Called by c_bands:
     init_us_2    :      6.16s CPU      6.26s WALL (     180 calls)
     cegterg      :    695.91s CPU    948.88s WALL (      84 calls)

     Called by *egterg:
     cdiaghg      :     48.39s CPU     90.02s WALL (     390 calls)
     h_psi        :    356.28s CPU    392.44s WALL (     396 calls)
     g_psi        :      1.28s CPU      1.31s WALL (     306 calls)

     Called by h_psi:
     h_psi:calbec :    112.26s CPU    122.23s WALL (     396 calls)
     vloc_psi     :    150.50s CPU    173.97s WALL (     396 calls)
     add_vuspsi   :     90.89s CPU     93.25s WALL (     396 calls)

     General routines
     calbec       :    123.93s CPU    143.09s WALL (     420 calls)
     fft          :      0.28s CPU      0.57s WALL (     160 calls)
     ffts         :      0.01s CPU      0.01s WALL (      14 calls)
     fftw         :    166.61s CPU    192.31s WALL (  397336 calls)
 
     Parallel routines
 
     PWSCF        :  13m 3.05s CPU  17m37.04s WALL

 
   This run was terminated on:  17:54:55  19May2025            

=------------------------------------------------------------------------------=
   JOB DONE.
=------------------------------------------------------------------------------=
