
     Program PWSCF v.6.8 starts on 29Apr2025 at  6:42:23 

     This program is part of the open-source Quantum ESPRESSO suite
     for quantum simulation of materials; please cite
         "P. Giannozzi et al., J. Phys.:Condens. Matter 21 395502 (2009);
         "P. Giannozzi et al., J. Phys.:Condens. Matter 29 465901 (2017);
         "P. Giannozzi et al., J. Chem. Phys. 152 154105 (2020);
          URL http://www.quantum-espresso.org", 
     in publications or presentations arising from this work. More details at
     http://www.quantum-espresso.org/quote

     Parallel version (MPI & OpenMP), running on      56 processor cores
     Number of MPI processes:                56
     Threads/MPI process:                     1

     MPI processes distributed on     1 nodes
     R & G space division:  proc/nbgrp/npool/nimage =      56
     186306 MiB available memory on the printing compute node when the environment starts
 
     Reading input from surface_relax.in
Warning: card &CELL ignored
Warning: card / ignored
Warning: card &FCP ignored
Warning: card / ignored
Warning: card &RISM ignored
Warning: card / ignored

     Current dimensions of program PWSCF are:
     Max number of different atomic species (ntypx) = 10
     Max number of k-points (npk) =  40000
     Max angular momentum in pseudopotentials (lmaxx) =  4

     Subspace diagonalization in iterative solution of the eigenvalue problem:
     one sub-group per band group will be used
     scalapack distributed-memory algorithm (size of sub-group:  7*  7 procs)

 
     Parallelization info
     --------------------
     sticks:   dense  smooth     PW     G-vecs:    dense   smooth      PW
     Min          40      40     11                 5054     5054     748
     Max          41      41     12                 5071     5071     754
     Sum        2271    2271    645               283329   283329   42059
 
     Using Slab Decomposition
 


     bravais-lattice index     =            0
     lattice parameter (alat)  =       7.7101  a.u.
     unit-cell volume          =    4515.3380 (a.u.)^3
     number of atoms/cell      =           16
     number of atomic types    =            1
     number of electrons       =       224.00
     number of Kohn-Sham states=          134
     kinetic-energy cutoff     =      60.0000  Ry
     charge density cutoff     =     240.0000  Ry
     scf convergence threshold =      1.0E-06
     mixing beta               =       0.4000
     number of iterations used =            8  plain     mixing
     energy convergence thresh.=      1.0E-04
     force convergence thresh. =      1.0E-03
     Exchange-correlation= PBE
                           (   1   4   3   4   0   0   0)
     nstep                     =           50


     celldm(1)=   7.710094  celldm(2)=   0.000000  celldm(3)=   0.000000
     celldm(4)=   0.000000  celldm(5)=   0.000000  celldm(6)=   0.000000

     crystal axes: (cart. coord. in units of alat)
               a(1) = (   1.000000   0.000000   0.000000 )  
               a(2) = (   0.000000   2.000000   0.000000 )  
               a(3) = (   0.000000   0.000000   4.925850 )  

     reciprocal axes: (cart. coord. in units 2 pi/alat)
               b(1) = (  1.000000  0.000000  0.000000 )  
               b(2) = (  0.000000  0.500000  0.000000 )  
               b(3) = (  0.000000  0.000000  0.203011 )  


     PseudoPot. # 1 for Ge read from file:
     ./Ge.upf
     MD5 check sum: 087fa14d6c89b52166990835c3b338da
     Pseudo is Norm-conserving + core correction, Zval = 14.0
     Generated using ONCVPSP code by D. R. Hamann
     Using radial grid of 1560 points,  6 beta functions with: 
                l(1) =   0
                l(2) =   0
                l(3) =   1
                l(4) =   1
                l(5) =   2
                l(6) =   2

     atomic species   valence    mass     pseudopotential
        Ge            14.00    72.63000     Ge( 1.00)

     No symmetry found



   Cartesian axes

     site n.     atom                  positions (alat units)
         1           Ge  tau(   1) = (  -0.0030167   0.0022822   1.2249412  )
         2           Ge  tau(   2) = (   0.4965281  -0.0042770   1.5816872  )
         3           Ge  tau(   3) = (   0.5022038   0.5013653   1.9311228  )
         4           Ge  tau(   4) = (  -0.0044388   0.4990746   2.2850576  )
         5           Ge  tau(   5) = (   0.0037001  -0.0027294   2.6416047  )
         6           Ge  tau(   6) = (   0.4981555  -0.0037062   2.9903973  )
         7           Ge  tau(   7) = (   0.5025211   0.5017817   3.3490987  )
         8           Ge  tau(   8) = (  -0.0014378   0.5033169   3.6987207  )
         9           Ge  tau(   9) = (  -0.0040734   0.9953772   1.2297627  )
        10           Ge  tau(  10) = (   0.4982794   1.0005708   1.5836744  )
        11           Ge  tau(  11) = (   0.4961801   1.4982797   1.9278518  )
        12           Ge  tau(  12) = (  -0.0000030   1.4971001   2.2860165  )
        13           Ge  tau(  13) = (   0.0032972   0.9967567   2.6378694  )
        14           Ge  tau(  14) = (   0.4992039   0.9970407   2.9954687  )
        15           Ge  tau(  15) = (   0.5048462   1.5016891   3.3452237  )
        16           Ge  tau(  16) = (   0.0033769   1.5007561   3.6967257  )

     number of k points=    10  Gaussian smearing, width (Ry)=  0.0100
                       cart. coord. in units 2pi/alat
        k(    1) = (   0.0000000   0.0000000   0.0000000), wk =   0.1250000
        k(    2) = (   0.0000000   0.1250000   0.0000000), wk =   0.2500000
        k(    3) = (   0.0000000  -0.2500000   0.0000000), wk =   0.1250000
        k(    4) = (   0.2500000   0.0000000   0.0000000), wk =   0.2500000
        k(    5) = (   0.2500000   0.1250000   0.0000000), wk =   0.2500000
        k(    6) = (   0.2500000  -0.2500000   0.0000000), wk =   0.2500000
        k(    7) = (  -0.5000000   0.0000000   0.0000000), wk =   0.1250000
        k(    8) = (  -0.5000000   0.1250000   0.0000000), wk =   0.2500000
        k(    9) = (  -0.5000000  -0.2500000   0.0000000), wk =   0.1250000
        k(   10) = (  -0.2500000   0.1250000   0.0000000), wk =   0.2500000

     Dense  grid:   283329 G-vectors     FFT dimensions: (  40,  80, 192)

     Estimated max dynamical RAM per process >      27.04 MB

     Estimated total dynamical RAM >       1.48 GB

     Initial potential from superposition of free atoms

     starting charge  223.98683, renormalised to  224.00000

     negative rho (up, down):  1.280E-05 0.000E+00
     Starting wfcs are  144 randomized atomic wfcs

     total cpu time spent up to now is        1.6 secs

     Self-consistent Calculation

     iteration #  1     ecut=    60.00 Ry     beta= 0.40
     Davidson diagonalization with overlap
     ethr =  1.00E-02,  avg # of iterations =  3.1

     Threshold (ethr) on eigenvalues was too large:
     Diagonalizing with lowered threshold

     Davidson diagonalization with overlap
     ethr =  2.23E-04,  avg # of iterations =  6.6

     negative rho (up, down):  3.888E-06 0.000E+00

     total cpu time spent up to now is       10.5 secs

     total energy              =   -2857.17310144 Ry
     estimated scf accuracy    <       0.54364082 Ry

     iteration #  2     ecut=    60.00 Ry     beta= 0.40
     Davidson diagonalization with overlap
     ethr =  2.43E-04,  avg # of iterations =  8.9

     negative rho (up, down):  2.082E-06 0.000E+00

     total cpu time spent up to now is       15.5 secs

     total energy              =   -2856.89191537 Ry
     estimated scf accuracy    <       4.54896081 Ry

     iteration #  3     ecut=    60.00 Ry     beta= 0.40
     Davidson diagonalization with overlap
     ethr =  2.43E-04,  avg # of iterations =  7.2

     negative rho (up, down):  1.382E-07 0.000E+00

     total cpu time spent up to now is       20.0 secs

     total energy              =   -2857.26831520 Ry
     estimated scf accuracy    <       0.27003637 Ry

     iteration #  4     ecut=    60.00 Ry     beta= 0.40
     Davidson diagonalization with overlap
     ethr =  1.21E-04,  avg # of iterations = 10.1

     negative rho (up, down):  1.271E-08 0.000E+00

     total cpu time spent up to now is       24.8 secs

     total energy              =   -2857.15779115 Ry
     estimated scf accuracy    <       4.89137341 Ry

     iteration #  5     ecut=    60.00 Ry     beta= 0.40
     Davidson diagonalization with overlap
     ethr =  1.21E-04,  avg # of iterations =  8.4

     total cpu time spent up to now is       29.1 secs

     total energy              =   -2857.29828385 Ry
     estimated scf accuracy    <       0.01950913 Ry

     iteration #  6     ecut=    60.00 Ry     beta= 0.40
     Davidson diagonalization with overlap
     ethr =  8.71E-06,  avg # of iterations =  8.5

     total cpu time spent up to now is       33.8 secs

     total energy              =   -2857.30000621 Ry
     estimated scf accuracy    <       0.00440494 Ry

     iteration #  7     ecut=    60.00 Ry     beta= 0.40
     Davidson diagonalization with overlap
     ethr =  1.97E-06,  avg # of iterations =  4.4

     total cpu time spent up to now is       37.3 secs

     total energy              =   -2857.30019018 Ry
     estimated scf accuracy    <       0.00102323 Ry

     iteration #  8     ecut=    60.00 Ry     beta= 0.40
     Davidson diagonalization with overlap
     ethr =  4.57E-07,  avg # of iterations =  2.0

     total cpu time spent up to now is       40.4 secs

     total energy              =   -2857.30023996 Ry
     estimated scf accuracy    <       0.00031743 Ry

     iteration #  9     ecut=    60.00 Ry     beta= 0.40
     Davidson diagonalization with overlap
     ethr =  1.42E-07,  avg # of iterations =  2.0

     total cpu time spent up to now is       43.6 secs

     total energy              =   -2857.30027534 Ry
     estimated scf accuracy    <       0.00006186 Ry

     iteration # 10     ecut=    60.00 Ry     beta= 0.40
     Davidson diagonalization with overlap
     ethr =  2.76E-08,  avg # of iterations =  2.0

     total cpu time spent up to now is       46.7 secs

     total energy              =   -2857.30028097 Ry
     estimated scf accuracy    <       0.00001206 Ry

     iteration # 11     ecut=    60.00 Ry     beta= 0.40
     Davidson diagonalization with overlap
     ethr =  5.38E-09,  avg # of iterations =  1.6

     total cpu time spent up to now is       49.7 secs

     total energy              =   -2857.30028226 Ry
     estimated scf accuracy    <       0.00000427 Ry

     iteration # 12     ecut=    60.00 Ry     beta= 0.40
     Davidson diagonalization with overlap
     ethr =  1.91E-09,  avg # of iterations =  1.9

     total cpu time spent up to now is       52.9 secs

     End of self-consistent calculation

          k = 0.0000 0.0000 0.0000 ( 35449 PWs)   bands (ev):

   -21.8680 -21.8638 -21.8589 -21.8547 -21.8379 -21.8322 -21.8309 -21.8188
   -21.8132 -21.8075 -21.7952 -21.7948 -21.7871 -21.7841 -21.7819 -21.7813
   -21.7794 -21.7775 -21.7515 -21.7498 -21.7455 -21.7430 -21.7381 -21.7048
   -21.7026 -21.6770 -21.6730 -21.6712 -21.6660 -21.6637 -21.6629 -21.6620
   -21.6611 -21.6593 -21.6301 -21.6283 -21.6243 -21.6232 -21.6221 -21.6199
   -21.6199 -21.6125 -21.6114 -21.6092 -21.6062 -21.6041 -21.6035 -21.6014
   -21.5999 -21.5959 -21.5923 -21.5910 -21.5893 -21.5856 -21.5812 -21.5770
   -21.5406 -21.5335 -21.5326 -21.5311 -21.4416 -21.4396 -21.4385 -21.4310
   -21.4277 -21.4246 -21.4194 -21.4150 -21.3977 -21.3895 -21.3860 -21.3843
   -21.3839 -21.3825 -21.3733 -21.3720 -21.3445 -21.3342 -21.3339 -21.3317
    -9.0462  -8.3943  -7.4411  -7.4243  -7.3852  -7.0400  -7.0219  -6.0972
    -4.5226  -3.9427  -3.9026  -2.8222  -2.7595  -2.6985  -0.7579   0.0288
     0.0466   0.4314   0.4449   1.0655   1.1222   1.1667   1.6901   1.7200
     1.8206   1.8296   1.9400   1.9978   2.0422   2.1548   2.7581   2.8621
     2.8724   3.2635   3.9453   3.9987   4.3169   4.5031   4.5749   4.5883
     4.6341   4.9321   5.0265   5.0544   5.0770   5.2053   5.3949   6.2780
     7.1009   7.1158   7.1792   7.2081   7.2417   7.3586

          k = 0.0000 0.1250 0.0000 ( 35486 PWs)   bands (ev):

   -21.8690 -21.8646 -21.8603 -21.8567 -21.8450 -21.8390 -21.8245 -21.8218
   -21.8101 -21.8053 -21.8014 -21.7948 -21.7918 -21.7849 -21.7814 -21.7797
   -21.7762 -21.7697 -21.7654 -21.7554 -21.7443 -21.7385 -21.7276 -21.7053
   -21.7014 -21.6789 -21.6784 -21.6743 -21.6724 -21.6679 -21.6666 -21.6632
   -21.6542 -21.6512 -21.6314 -21.6302 -21.6290 -21.6238 -21.6225 -21.6213
   -21.6200 -21.6128 -21.6106 -21.6079 -21.6075 -21.6058 -21.6045 -21.6032
   -21.6019 -21.6015 -21.5971 -21.5932 -21.5871 -21.5830 -21.5772 -21.5731
   -21.5417 -21.5351 -21.5333 -21.5316 -21.4472 -21.4448 -21.4425 -21.4372
   -21.4220 -21.4179 -21.4167 -21.4131 -21.3978 -21.3898 -21.3859 -21.3840
   -21.3834 -21.3826 -21.3764 -21.3741 -21.3445 -21.3351 -21.3332 -21.3303
    -8.9293  -8.2884  -8.0488  -7.5535  -7.3123  -6.9432  -6.6773  -6.1218
    -4.4614  -4.1508  -3.5640  -2.8124  -2.7271  -2.2553  -1.1760  -0.2543
    -0.0333   0.3023   0.4750   0.5347   0.9529   1.1445   1.2492   1.6535
     1.8847   1.9767   2.0023   2.0924   2.2705   2.4187   2.7176   2.8887
     2.9728   3.0185   3.9136   4.0849   4.3652   4.4902   4.6416   4.6982
     4.7816   4.8853   5.0763   5.0939   5.2911   5.6038   6.1760   6.3641
     6.8823   7.1127   7.1840   7.2167   7.3109   7.3355

          k = 0.0000-0.2500 0.0000 ( 35510 PWs)   bands (ev):

   -21.8696 -21.8645 -21.8606 -21.8584 -21.8483 -21.8437 -21.8270 -21.8248
   -21.8088 -21.8055 -21.7999 -21.7970 -21.7917 -21.7865 -21.7826 -21.7805
   -21.7712 -21.7707 -21.7663 -21.7633 -21.7414 -21.7400 -21.7115 -21.7061
   -21.6928 -21.6893 -21.6779 -21.6777 -21.6734 -21.6729 -21.6694 -21.6681
   -21.6446 -21.6436 -21.6424 -21.6416 -21.6319 -21.6254 -21.6245 -21.6218
   -21.6155 -21.6138 -21.6112 -21.6094 -21.6064 -21.6050 -21.6039 -21.6029
   -21.6011 -21.6002 -21.6001 -21.5967 -21.5869 -21.5831 -21.5719 -21.5685
   -21.5420 -21.5348 -21.5338 -21.5328 -21.4491 -21.4473 -21.4442 -21.4400
   -21.4168 -21.4141 -21.4128 -21.4119 -21.3998 -21.3895 -21.3881 -21.3859
   -21.3845 -21.3816 -21.3775 -21.3766 -21.3445 -21.3350 -21.3329 -21.3315
    -8.5929  -8.5806  -7.9984  -7.9693  -7.1215  -7.0969  -6.2888  -6.2520
    -4.3293  -4.2892  -3.1646  -3.1539  -2.0960  -2.0582  -1.1846  -1.1514
    -0.3267  -0.3045   0.7985   0.8142   0.8458   0.8527   1.3627   1.3729
     2.0457   2.0661   2.1151   2.1331   2.5527   2.5923   2.6222   2.6238
     2.9105   2.9380   3.7516   3.7636   4.4643   4.4766   4.6656   4.6903
     4.7599   4.7791   5.0971   5.1154   6.5546   6.6057   6.6921   6.7109
     6.9025   6.9286   7.4834   7.4953   7.5274   7.5405

          k = 0.2500 0.0000 0.0000 ( 35445 PWs)   bands (ev):

   -21.8742 -21.8681 -21.8647 -21.8523 -21.8400 -21.8329 -21.8308 -21.8212
   -21.8174 -21.8046 -21.8027 -21.7987 -21.7894 -21.7776 -21.7665 -21.7643
   -21.7596 -21.7584 -21.7552 -21.7478 -21.7357 -21.7251 -21.7240 -21.7213
   -21.6976 -21.6919 -21.6909 -21.6849 -21.6840 -21.6804 -21.6733 -21.6712
   -21.6616 -21.6594 -21.6371 -21.6326 -21.6275 -21.6268 -21.6231 -21.6213
   -21.6199 -21.6181 -21.6173 -21.6123 -21.6114 -21.6063 -21.6058 -21.6011
   -21.5965 -21.5921 -21.5905 -21.5853 -21.5733 -21.5720 -21.5676 -21.5659
   -21.5264 -21.5200 -21.5171 -21.5166 -21.4466 -21.4389 -21.4379 -21.4355
   -21.4349 -21.4334 -21.4258 -21.4219 -21.4020 -21.4013 -21.3943 -21.3901
   -21.3873 -21.3853 -21.3838 -21.3803 -21.3340 -21.3237 -21.3226 -21.3186
    -8.5831  -7.9723  -7.0689  -6.9478  -6.9215  -6.5376  -6.5225  -5.6047
    -4.9268  -4.2037  -4.1686  -3.5049  -3.3292  -3.2893  -2.2210  -1.0923
    -0.5802  -0.3072  -0.3037  -0.0371  -0.0294   0.3738   0.7782   0.7954
     0.8319   1.4170   1.6247   2.0725   2.2104   2.3180   2.3350   2.4961
     2.5020   2.7194   4.1500   4.4677   4.6425   4.8040   4.9410   5.0447
     5.0712   5.9124   5.9190   6.0865   6.4270   6.7273   6.9898   7.0314
     7.0576   7.4400   7.4730   7.4847   7.5709   7.7654

          k = 0.2500 0.1250 0.0000 ( 35448 PWs)   bands (ev):

   -21.8743 -21.8683 -21.8637 -21.8539 -21.8433 -21.8388 -21.8292 -21.8242
   -21.8144 -21.8055 -21.8020 -21.7928 -21.7910 -21.7766 -21.7717 -21.7655
   -21.7629 -21.7554 -21.7483 -21.7443 -21.7366 -21.7325 -21.7191 -21.7115
   -21.6976 -21.6935 -21.6873 -21.6853 -21.6838 -21.6803 -21.6761 -21.6731
   -21.6677 -21.6530 -21.6481 -21.6338 -21.6299 -21.6286 -21.6244 -21.6223
   -21.6193 -21.6170 -21.6149 -21.6138 -21.6099 -21.6070 -21.6047 -21.6003
   -21.5945 -21.5909 -21.5891 -21.5845 -21.5755 -21.5729 -21.5678 -21.5622
   -21.5266 -21.5199 -21.5179 -21.5164 -21.4503 -21.4456 -21.4437 -21.4409
   -21.4265 -21.4254 -21.4222 -21.4203 -21.4014 -21.4005 -21.3922 -21.3903
   -21.3870 -21.3855 -21.3850 -21.3823 -21.3342 -21.3241 -21.3227 -21.3190
    -8.4648  -7.8622  -7.5700  -7.0896  -6.9691  -6.4719  -6.1583  -5.6205
    -4.8693  -4.5242  -3.8537  -3.5340  -3.1537  -2.8269  -2.2917  -1.2584
    -0.6282  -0.5449  -0.4718  -0.0416   0.1182   0.3030   0.5751   0.7048
     0.7684   0.9984   1.4304   1.8468   2.1859   2.2813   2.3845   2.6616
     2.7505   2.8203   4.0749   4.3158   5.0141   5.0295   5.2791   5.3899
     5.4607   5.8806   5.9506   6.2731   6.6729   6.7192   6.8777   7.0879
     7.2425   7.3281   7.3636   7.5762   7.5981   7.6435

          k = 0.2500-0.2500 0.0000 ( 35426 PWs)   bands (ev):

   -21.8740 -21.8685 -21.8615 -21.8570 -21.8454 -21.8410 -21.8301 -21.8270
   -21.8118 -21.8089 -21.8003 -21.7957 -21.7795 -21.7783 -21.7727 -21.7696
   -21.7597 -21.7564 -21.7411 -21.7387 -21.7358 -21.7349 -21.7078 -21.7048
   -21.7011 -21.6968 -21.6870 -21.6855 -21.6795 -21.6764 -21.6732 -21.6721
   -21.6688 -21.6678 -21.6415 -21.6407 -21.6299 -21.6285 -21.6242 -21.6213
   -21.6188 -21.6167 -21.6150 -21.6137 -21.6088 -21.6076 -21.6038 -21.6020
   -21.5937 -21.5896 -21.5883 -21.5834 -21.5776 -21.5734 -21.5647 -21.5610
   -21.5258 -21.5183 -21.5179 -21.5166 -21.4534 -21.4498 -21.4457 -21.4451
   -21.4220 -21.4218 -21.4208 -21.4199 -21.4000 -21.3986 -21.3891 -21.3887
   -21.3872 -21.3855 -21.3848 -21.3841 -21.3342 -21.3248 -21.3216 -21.3208
    -8.1251  -8.1095  -7.5618  -7.5284  -6.7309  -6.7012  -5.7677  -5.7334
    -4.7322  -4.7104  -3.6603  -3.6556  -2.6595  -2.6251  -1.9348  -1.8914
    -0.6221  -0.6045  -0.5617  -0.5485   0.1523   0.1714   0.3697   0.3946
     1.0790   1.0926   1.4199   1.4242   2.3879   2.4025   2.4656   2.4754
     3.1473   3.1674   3.4987   3.5158   5.2001   5.2290   5.5503   5.5766
     6.1274   6.1555   6.4543   6.4605   6.8334   6.8388   7.0571   7.0647
     7.6270   7.6353   7.6490   7.6717   7.9481   7.9662

          k =-0.5000 0.0000 0.0000 ( 35284 PWs)   bands (ev):

   -21.8629 -21.8578 -21.8539 -21.8414 -21.8398 -21.8349 -21.8323 -21.8220
   -21.8208 -21.8139 -21.8065 -21.8036 -21.7913 -21.7678 -21.7667 -21.7608
   -21.7541 -21.7521 -21.7493 -21.7432 -21.7291 -21.7135 -21.7101 -21.7087
   -21.7035 -21.6885 -21.6854 -21.6845 -21.6840 -21.6765 -21.6763 -21.6704
   -21.6673 -21.6624 -21.6408 -21.6386 -21.6358 -21.6319 -21.6305 -21.6232
   -21.6216 -21.6176 -21.6171 -21.6163 -21.6121 -21.6106 -21.6094 -21.6072
   -21.5715 -21.5696 -21.5683 -21.5657 -21.5646 -21.5606 -21.5577 -21.5554
   -21.5268 -21.5209 -21.5203 -21.5173 -21.4644 -21.4570 -21.4509 -21.4505
   -21.4325 -21.4295 -21.4218 -21.4183 -21.4039 -21.3937 -21.3875 -21.3850
   -21.3833 -21.3729 -21.3713 -21.3677 -21.3360 -21.3254 -21.3198 -21.3131
    -7.4253  -7.3981  -7.2896  -5.6297  -5.6044  -5.5625  -5.5342  -5.4042
    -5.3669  -5.1781  -5.1124  -4.7268  -4.7042  -3.9373  -3.7528  -3.4492
    -0.2954  -0.2856  -0.2430  -0.2306  -0.0059   0.0981   0.1680   0.1741
     1.2418   1.4081   1.7086   1.7132   1.8151   1.8849   1.9080   2.3426
     2.3680   2.3755   3.7182   4.3539   4.6098   4.6380   4.6714   4.9629
     4.9817   5.2597   5.2829   6.2149   6.2392   6.7665   6.7815   7.0016
     7.1476   7.2817   7.4575   7.6323   7.6535   7.6782

          k =-0.5000 0.1250 0.0000 ( 35366 PWs)   bands (ev):

   -21.8634 -21.8590 -21.8548 -21.8488 -21.8426 -21.8370 -21.8318 -21.8230
   -21.8215 -21.8094 -21.8073 -21.8049 -21.7941 -21.7864 -21.7598 -21.7542
   -21.7510 -21.7487 -21.7454 -21.7438 -21.7319 -21.7197 -21.7092 -21.7068
   -21.6996 -21.6936 -21.6911 -21.6870 -21.6822 -21.6764 -21.6756 -21.6722
   -21.6691 -21.6637 -21.6526 -21.6478 -21.6363 -21.6322 -21.6287 -21.6244
   -21.6218 -21.6176 -21.6171 -21.6155 -21.6120 -21.6108 -21.6100 -21.6074
   -21.5717 -21.5706 -21.5683 -21.5659 -21.5646 -21.5615 -21.5611 -21.5547
   -21.5279 -21.5219 -21.5214 -21.5182 -21.4686 -21.4609 -21.4576 -21.4554
   -21.4278 -21.4255 -21.4201 -21.4181 -21.4042 -21.3935 -21.3890 -21.3868
   -21.3844 -21.3746 -21.3724 -21.3694 -21.3363 -21.3255 -21.3231 -21.3168
    -7.3012  -7.2734  -7.1661  -6.3413  -6.3033  -6.2144  -5.1236  -5.0602
    -4.8588  -4.7777  -4.7104  -4.6704  -4.6463  -3.9660  -3.8137  -3.5465
    -0.6048  -0.4466  -0.0130   0.0560   0.0604   0.0874   0.3228   0.3936
     0.6893   0.8958   0.9947   1.3306   1.7747   1.8267   2.0271   2.2339
     2.5724   2.6811   4.2462   4.4264   4.5416   4.5863   5.0028   5.2399
     5.3184   5.3618   5.4685   6.1831   6.3271   6.3684   6.4845   6.6170
     7.1994   7.2635   7.5850   7.7128   7.8983   8.2909

          k =-0.5000-0.2500 0.0000 ( 35380 PWs)   bands (ev):

   -21.8628 -21.8591 -21.8542 -21.8525 -21.8439 -21.8386 -21.8286 -21.8246
   -21.8165 -21.8139 -21.8034 -21.8002 -21.7988 -21.7967 -21.7572 -21.7535
   -21.7487 -21.7437 -21.7391 -21.7382 -21.7314 -21.7292 -21.7029 -21.7022
   -21.7011 -21.6982 -21.6846 -21.6840 -21.6820 -21.6779 -21.6775 -21.6765
   -21.6670 -21.6641 -21.6589 -21.6563 -21.6349 -21.6339 -21.6254 -21.6233
   -21.6210 -21.6183 -21.6178 -21.6152 -21.6125 -21.6116 -21.6097 -21.6075
   -21.5715 -21.5697 -21.5677 -21.5668 -21.5659 -21.5613 -21.5592 -21.5557
   -21.5276 -21.5216 -21.5211 -21.5180 -21.4717 -21.4639 -21.4615 -21.4591
   -21.4249 -21.4223 -21.4195 -21.4180 -21.4033 -21.3919 -21.3890 -21.3875
   -21.3838 -21.3745 -21.3711 -21.3702 -21.3347 -21.3252 -21.3216 -21.3206
    -6.9545  -6.9450  -6.9008  -6.8717  -6.8202  -6.7757  -4.9861  -4.9710
    -4.9344  -4.9099  -4.2113  -4.1325  -4.1160  -4.0724  -3.9492  -3.8980
    -0.3629  -0.3625  -0.1738  -0.1636   0.1692   0.1709   0.1847   0.2043
     0.4882   0.5030   0.9075   0.9283   1.9277   1.9412   1.9748   1.9803
     3.2515   3.2770   3.4572   3.4832   4.9353   4.9724   5.2307   5.2487
     5.6233   5.6561   5.7747   5.7936   6.0362   6.0461   6.8442   6.8573
     7.6248   7.6388   8.3530   8.3737   8.5609   8.5664

          k =-0.2500 0.1250 0.0000 ( 35448 PWs)   bands (ev):

   -21.8741 -21.8687 -21.8634 -21.8539 -21.8434 -21.8389 -21.8288 -21.8241
   -21.8146 -21.8053 -21.8026 -21.7927 -21.7908 -21.7766 -21.7717 -21.7654
   -21.7629 -21.7555 -21.7483 -21.7444 -21.7362 -21.7330 -21.7189 -21.7109
   -21.6971 -21.6947 -21.6879 -21.6849 -21.6836 -21.6799 -21.6764 -21.6731
   -21.6677 -21.6525 -21.6486 -21.6336 -21.6299 -21.6287 -21.6245 -21.6220
   -21.6193 -21.6173 -21.6149 -21.6134 -21.6100 -21.6069 -21.6048 -21.6004
   -21.5949 -21.5907 -21.5891 -21.5842 -21.5763 -21.5720 -21.5678 -21.5624
   -21.5266 -21.5199 -21.5179 -21.5164 -21.4502 -21.4456 -21.4435 -21.4410
   -21.4265 -21.4255 -21.4222 -21.4201 -21.4016 -21.4003 -21.3923 -21.3903
   -21.3871 -21.3856 -21.3850 -21.3823 -21.3342 -21.3240 -21.3227 -21.3190
    -8.4647  -7.8626  -7.5697  -7.0898  -6.9685  -6.4721  -6.1588  -5.6202
    -4.8693  -4.5238  -3.8544  -3.5333  -3.1541  -2.8267  -2.2917  -1.2590
    -0.6269  -0.5440  -0.4729  -0.0429   0.1179   0.3039   0.5762   0.7078
     0.7644   0.9985   1.4306   1.8456   2.1866   2.2814   2.3843   2.6615
     2.7513   2.8202   4.0749   4.3155   5.0128   5.0292   5.2762   5.3934
     5.4632   5.8805   5.9493   6.2736   6.6775   6.7149   6.8761   7.0887
     7.2435   7.3343   7.3555   7.5721   7.6020   7.6445

     the Fermi energy is     2.6693 ev

!    total energy              =   -2857.30028214 Ry
     estimated scf accuracy    <       0.00000052 Ry
     smearing contrib. (-TS)   =      -0.00715280 Ry
     internal energy E=F+TS    =   -2857.29312933 Ry

     The total energy is F=E-TS. E is the sum of the following terms:
     one-electron contribution =   -7693.70681019 Ry
     hartree contribution      =    3947.05019026 Ry
     xc contribution           =    -697.03942055 Ry
     ewald contribution        =    1586.40291115 Ry

     convergence has been achieved in  12 iterations

     Forces acting on atoms (cartesian axes, Ry/au):

     atom    1 type  1   force =    -0.00035454    0.00184452   -0.00400618
     atom    2 type  1   force =     0.00059869    0.00562725   -0.00062744
     atom    3 type  1   force =    -0.00785672   -0.00524546    0.00229242
     atom    4 type  1   force =     0.00869839   -0.00380012    0.00415451
     atom    5 type  1   force =    -0.00744246    0.00153838   -0.00863639
     atom    6 type  1   force =     0.00655105    0.00740932    0.00408995
     atom    7 type  1   force =    -0.00397365   -0.00822546   -0.00894410
     atom    8 type  1   force =     0.00422685    0.00063695    0.00832755
     atom    9 type  1   force =     0.00264939   -0.00179296   -0.00725696
     atom   10 type  1   force =    -0.00227531   -0.00164652   -0.00151548
     atom   11 type  1   force =     0.00422594    0.00083706    0.01133671
     atom   12 type  1   force =    -0.00390775    0.00111327    0.00175478
     atom   13 type  1   force =    -0.00493088    0.00165657    0.00014880
     atom   14 type  1   force =     0.00407841    0.00459252   -0.00349282
     atom   15 type  1   force =    -0.00110647   -0.00370798   -0.00552556
     atom   16 type  1   force =     0.00081908   -0.00083734    0.00790021

     Total force =     0.034320     Total SCF correction =     0.004207
     SCF correction compared to forces is large: reduce conv_thr to get better values

     BFGS Geometry Optimization
     Energy error            =      0.0E+00 Ry
     Gradient error          =      1.1E-02 Ry/Bohr

     number of scf cycles    =   1
     number of bfgs steps    =   0

     energy             new  =   -2857.3002821360 Ry

     new trust radius        =       0.0127845604 bohr
     new conv_thr            =       0.0000010000 Ry


ATOMIC_POSITIONS (angstrom)
Ge           -0.0124957060        0.0102874997        4.9956477803
Ge            2.0261546874       -0.0144724561        6.4529613863
Ge            2.0448370460        2.0427977874        7.8802060519
Ge           -0.0135074322        2.0342165985        9.3252474226
Ge            0.0111578981       -0.0103218734       10.7731933643
Ge            2.0359442321       -0.0112005888       12.2030036236
Ge            2.0481865675        2.0429197325       13.6596102217
Ge           -0.0036294466        2.0538731840       15.0952097783
Ge           -0.0152176324        4.0601963295        5.0135991101
Ge            2.0317788476        4.0814635865        6.4605992510
Ge            2.0266541801        6.1134334436        7.8716464800
Ge           -0.0020802803        6.1087665787        9.3278900607
Ge            0.0108434556        4.0676500567       10.7626022455
Ge            2.0389133508        4.0703623734       12.2196823575
Ge            2.0591899502        6.1249383923       13.6456092397
Ge            0.0142113902        6.1226508608       15.0868441609



     Writing output data file ./out/ge.save/
     NEW-OLD atomic charge density approx. for the potential

     total cpu time spent up to now is       53.7 secs

     Self-consistent Calculation

     iteration #  1     ecut=    60.00 Ry     beta= 0.40
     Davidson diagonalization with overlap
     ethr =  1.00E-06,  avg # of iterations =  4.0

     total cpu time spent up to now is       59.8 secs

     total energy              =   -2857.30106541 Ry
     estimated scf accuracy    <       0.00040482 Ry

     iteration #  2     ecut=    60.00 Ry     beta= 0.40
     Davidson diagonalization with overlap
     ethr =  1.81E-07,  avg # of iterations =  7.1

     total cpu time spent up to now is       64.2 secs

     total energy              =   -2857.29917505 Ry
     estimated scf accuracy    <       0.09462208 Ry

     iteration #  3     ecut=    60.00 Ry     beta= 0.40
     Davidson diagonalization with overlap
     ethr =  1.81E-07,  avg # of iterations =  6.8

     total cpu time spent up to now is       68.3 secs

     total energy              =   -2857.30130676 Ry
     estimated scf accuracy    <       0.00002785 Ry

     iteration #  4     ecut=    60.00 Ry     beta= 0.40
     Davidson diagonalization with overlap
     ethr =  1.24E-08,  avg # of iterations =  3.2

     total cpu time spent up to now is       71.7 secs

     total energy              =   -2857.30130815 Ry
     estimated scf accuracy    <       0.00003067 Ry

     iteration #  5     ecut=    60.00 Ry     beta= 0.40
     Davidson diagonalization with overlap
     ethr =  1.24E-08,  avg # of iterations =  2.0

     total cpu time spent up to now is       74.9 secs

     total energy              =   -2857.30131094 Ry
     estimated scf accuracy    <       0.00000746 Ry

     iteration #  6     ecut=    60.00 Ry     beta= 0.40
     Davidson diagonalization with overlap
     ethr =  3.33E-09,  avg # of iterations =  2.0

     total cpu time spent up to now is       78.1 secs

     total energy              =   -2857.30131158 Ry
     estimated scf accuracy    <       0.00000240 Ry

     iteration #  7     ecut=    60.00 Ry     beta= 0.40
     Davidson diagonalization with overlap
     ethr =  1.07E-09,  avg # of iterations =  2.0

     total cpu time spent up to now is       81.2 secs

     End of self-consistent calculation

          k = 0.0000 0.0000 0.0000 ( 35449 PWs)   bands (ev):

   -21.8675 -21.8630 -21.8595 -21.8547 -21.8394 -21.8344 -21.8340 -21.8199
   -21.8137 -21.8042 -21.7941 -21.7918 -21.7867 -21.7836 -21.7829 -21.7811
   -21.7792 -21.7766 -21.7507 -21.7494 -21.7458 -21.7440 -21.7374 -21.7052
   -21.7035 -21.6760 -21.6735 -21.6718 -21.6660 -21.6643 -21.6642 -21.6627
   -21.6624 -21.6608 -21.6292 -21.6286 -21.6249 -21.6238 -21.6229 -21.6216
   -21.6209 -21.6138 -21.6097 -21.6067 -21.6063 -21.6052 -21.6024 -21.6005
   -21.5973 -21.5947 -21.5925 -21.5915 -21.5902 -21.5875 -21.5822 -21.5793
   -21.5370 -21.5317 -21.5311 -21.5300 -21.4372 -21.4354 -21.4340 -21.4287
   -21.4242 -21.4212 -21.4163 -21.4124 -21.3917 -21.3846 -21.3818 -21.3809
   -21.3800 -21.3796 -21.3701 -21.3682 -21.3401 -21.3324 -21.3318 -21.3300
    -9.0471  -8.3855  -7.4371  -7.4244  -7.3839  -7.0245  -7.0124  -6.0917
    -4.5241  -3.9397  -3.9117  -2.8181  -2.7737  -2.7017  -0.7636   0.0348
     0.0454   0.4312   0.4416   1.0772   1.1297   1.1629   1.6961   1.7136
     1.8219   1.8252   1.9521   2.0211   2.0525   2.1533   2.7662   2.8591
     2.8632   3.2599   3.9478   3.9987   4.3182   4.5064   4.5766   4.5850
     4.6406   4.9346   5.0254   5.0664   5.0828   5.2075   5.3951   6.2738
     7.1103   7.1222   7.1781   7.2123   7.2343   7.3579

          k = 0.0000 0.1250 0.0000 ( 35486 PWs)   bands (ev):

   -21.8685 -21.8634 -21.8610 -21.8569 -21.8470 -21.8420 -21.8264 -21.8226
   -21.8087 -21.8035 -21.7994 -21.7941 -21.7916 -21.7842 -21.7811 -21.7792
   -21.7754 -21.7707 -21.7649 -21.7556 -21.7442 -21.7377 -21.7279 -21.7056
   -21.7024 -21.6790 -21.6778 -21.6754 -21.6729 -21.6682 -21.6673 -21.6638
   -21.6557 -21.6522 -21.6319 -21.6308 -21.6286 -21.6246 -21.6234 -21.6224
   -21.6209 -21.6113 -21.6089 -21.6083 -21.6068 -21.6064 -21.6047 -21.6026
   -21.6012 -21.5992 -21.5960 -21.5943 -21.5877 -21.5839 -21.5784 -21.5753
   -21.5382 -21.5331 -21.5320 -21.5302 -21.4429 -21.4408 -21.4383 -21.4345
   -21.4184 -21.4147 -21.4137 -21.4103 -21.3917 -21.3846 -21.3817 -21.3810
   -21.3798 -21.3790 -21.3732 -21.3705 -21.3403 -21.3332 -21.3314 -21.3286
    -8.9301  -8.2793  -8.0492  -7.5456  -7.3060  -6.9333  -6.6716  -6.1163
    -4.4627  -4.1528  -3.5694  -2.8152  -2.7321  -2.2583  -1.1800  -0.2556
    -0.0317   0.2952   0.4818   0.5328   0.9565   1.1563   1.2489   1.6628
     1.8803   1.9896   2.0031   2.1079   2.2778   2.4161   2.7259   2.8847
     2.9669   3.0138   3.9130   4.0925   4.3642   4.4990   4.6423   4.6972
     4.7897   4.8899   5.0769   5.0954   5.2940   5.6049   6.1765   6.3588
     6.8833   7.1258   7.1868   7.2192   7.3017   7.3340

          k = 0.0000-0.2500 0.0000 ( 35510 PWs)   bands (ev):

   -21.8690 -21.8632 -21.8612 -21.8588 -21.8503 -21.8468 -21.8285 -21.8257
   -21.8058 -21.8037 -21.7992 -21.7967 -21.7910 -21.7865 -21.7825 -21.7800
   -21.7704 -21.7698 -21.7672 -21.7639 -21.7411 -21.7391 -21.7112 -21.7069
   -21.6936 -21.6904 -21.6783 -21.6766 -21.6742 -21.6735 -21.6700 -21.6688
   -21.6463 -21.6445 -21.6438 -21.6430 -21.6302 -21.6261 -21.6254 -21.6227
   -21.6164 -21.6145 -21.6097 -21.6069 -21.6060 -21.6049 -21.6022 -21.6021
   -21.6015 -21.6008 -21.5999 -21.5963 -21.5875 -21.5841 -21.5729 -21.5706
   -21.5383 -21.5325 -21.5323 -21.5317 -21.4449 -21.4432 -21.4404 -21.4373
   -21.4131 -21.4113 -21.4097 -21.4089 -21.3938 -21.3840 -21.3839 -21.3828
   -21.3817 -21.3767 -21.3743 -21.3738 -21.3401 -21.3331 -21.3306 -21.3300
    -8.5915  -8.5829  -7.9866  -7.9638  -7.1114  -7.0917  -6.2782  -6.2513
    -4.3247  -4.2973  -3.1686  -3.1605  -2.0954  -2.0649  -1.1802  -1.1532
    -0.3293  -0.3142   0.8066   0.8162   0.8480   0.8486   1.3740   1.3827
     2.0619   2.0791   2.1113   2.1301   2.5645   2.5940   2.6226   2.6248
     2.9050   2.9321   3.7490   3.7636   4.4745   4.4831   4.6673   4.6865
     4.7719   4.7879   5.0959   5.1103   6.5618   6.5986   6.7023   6.7150
     6.9015   6.9199   7.4915   7.4964   7.5154   7.5342

          k = 0.2500 0.0000 0.0000 ( 35445 PWs)   bands (ev):

   -21.8739 -21.8675 -21.8658 -21.8524 -21.8421 -21.8348 -21.8326 -21.8219
   -21.8149 -21.8035 -21.8003 -21.7989 -21.7892 -21.7765 -21.7656 -21.7629
   -21.7588 -21.7583 -21.7552 -21.7484 -21.7350 -21.7255 -21.7245 -21.7219
   -21.6982 -21.6930 -21.6920 -21.6847 -21.6835 -21.6805 -21.6737 -21.6718
   -21.6624 -21.6604 -21.6384 -21.6326 -21.6281 -21.6268 -21.6239 -21.6222
   -21.6202 -21.6191 -21.6169 -21.6132 -21.6112 -21.6072 -21.6063 -21.6023
   -21.5935 -21.5892 -21.5879 -21.5842 -21.5739 -21.5729 -21.5694 -21.5676
   -21.5233 -21.5185 -21.5164 -21.5153 -21.4414 -21.4346 -21.4336 -21.4322
   -21.4310 -21.4306 -21.4225 -21.4183 -21.3970 -21.3954 -21.3909 -21.3860
   -21.3843 -21.3822 -21.3809 -21.3775 -21.3299 -21.3218 -21.3213 -21.3172
    -8.5842  -7.9641  -7.0638  -6.9441  -6.9270  -6.5232  -6.5130  -5.5989
    -4.9257  -4.2016  -4.1763  -3.5012  -3.3241  -3.2951  -2.2205  -1.0898
    -0.5759  -0.3032  -0.3008  -0.0325  -0.0266   0.3812   0.7856   0.7988
     0.8280   1.4222   1.6272   2.0716   2.2065   2.3175   2.3291   2.4956
     2.4987   2.7171   4.1484   4.4679   4.6406   4.8056   4.9419   5.0542
     5.0705   5.9094   5.9138   6.0840   6.4214   6.7223   6.9952   7.0318
     7.0482   7.4448   7.4688   7.4764   7.5684   7.7638

          k = 0.2500 0.1250 0.0000 ( 35448 PWs)   bands (ev):

   -21.8740 -21.8681 -21.8644 -21.8543 -21.8448 -21.8416 -21.8301 -21.8246
   -21.8121 -21.8027 -21.8014 -21.7926 -21.7913 -21.7759 -21.7712 -21.7649
   -21.7618 -21.7548 -21.7480 -21.7445 -21.7361 -21.7327 -21.7201 -21.7116
   -21.6982 -21.6949 -21.6881 -21.6856 -21.6836 -21.6805 -21.6765 -21.6732
   -21.6682 -21.6541 -21.6502 -21.6341 -21.6301 -21.6291 -21.6245 -21.6230
   -21.6201 -21.6171 -21.6151 -21.6141 -21.6098 -21.6076 -21.6055 -21.6011
   -21.5917 -21.5883 -21.5867 -21.5835 -21.5764 -21.5737 -21.5693 -21.5640
   -21.5234 -21.5184 -21.5169 -21.5152 -21.4454 -21.4418 -21.4398 -21.4375
   -21.4229 -21.4214 -21.4187 -21.4164 -21.3957 -21.3952 -21.3889 -21.3862
   -21.3840 -21.3827 -21.3819 -21.3795 -21.3301 -21.3222 -21.3214 -21.3176
    -8.4657  -7.8539  -7.5704  -7.0817  -6.9651  -6.4632  -6.1527  -5.6146
    -4.8682  -4.5254  -3.8559  -3.5308  -3.1533  -2.8273  -2.2910  -1.2561
    -0.6247  -0.5422  -0.4727  -0.0419   0.1220   0.3135   0.5835   0.7084
     0.7676   1.0031   1.4287   1.8509   2.1821   2.2782   2.3821   2.6596
     2.7467   2.8185   4.0775   4.3177   5.0162   5.0281   5.2877   5.3907
     5.4567   5.8775   5.9467   6.2661   6.6724   6.7147   6.8680   7.0906
     7.2417   7.3256   7.3580   7.5781   7.5993   7.6382

          k = 0.2500-0.2500 0.0000 ( 35426 PWs)   bands (ev):

   -21.8737 -21.8684 -21.8616 -21.8582 -21.8467 -21.8437 -21.8304 -21.8276
   -21.8082 -21.8075 -21.7996 -21.7956 -21.7787 -21.7785 -21.7725 -21.7691
   -21.7590 -21.7555 -21.7407 -21.7376 -21.7361 -21.7350 -21.7091 -21.7060
   -21.7011 -21.6978 -21.6868 -21.6853 -21.6792 -21.6771 -21.6738 -21.6726
   -21.6702 -21.6697 -21.6427 -21.6421 -21.6298 -21.6287 -21.6241 -21.6219
   -21.6194 -21.6173 -21.6145 -21.6140 -21.6093 -21.6080 -21.6042 -21.6024
   -21.5908 -21.5871 -21.5864 -21.5825 -21.5785 -21.5746 -21.5656 -21.5631
   -21.5225 -21.5173 -21.5165 -21.5155 -21.4486 -21.4460 -21.4422 -21.4415
   -21.4183 -21.4181 -21.4168 -21.4159 -21.3940 -21.3934 -21.3857 -21.3850
   -21.3841 -21.3825 -21.3820 -21.3812 -21.3299 -21.3230 -21.3199 -21.3198
    -8.1234  -8.1125  -7.5500  -7.5240  -6.7218  -6.6988  -5.7570  -5.7320
    -4.7283  -4.7136  -3.6591  -3.6560  -2.6548  -2.6276  -1.9283  -1.8956
    -0.6190  -0.6054  -0.5632  -0.5517   0.1627   0.1795   0.3756   0.3958
     1.0831   1.0943   1.4234   1.4273   2.3855   2.3984   2.4602   2.4716
     3.1476   3.1698   3.4976   3.5163   5.2048   5.2249   5.5600   5.5792
     6.1279   6.1479   6.4454   6.4527   6.8280   6.8350   7.0534   7.0600
     7.6264   7.6327   7.6515   7.6692   7.9516   7.9710

          k =-0.5000 0.0000 0.0000 ( 35284 PWs)   bands (ev):

   -21.8630 -21.8576 -21.8555 -21.8432 -21.8405 -21.8350 -21.8334 -21.8206
   -21.8196 -21.8145 -21.8054 -21.8009 -21.7911 -21.7685 -21.7678 -21.7589
   -21.7530 -21.7507 -21.7505 -21.7427 -21.7278 -21.7133 -21.7114 -21.7084
   -21.7036 -21.6870 -21.6865 -21.6856 -21.6843 -21.6781 -21.6778 -21.6701
   -21.6673 -21.6635 -21.6428 -21.6388 -21.6356 -21.6336 -21.6314 -21.6230
   -21.6226 -21.6182 -21.6172 -21.6157 -21.6125 -21.6121 -21.6105 -21.6079
   -21.5707 -21.5682 -21.5669 -21.5654 -21.5619 -21.5596 -21.5590 -21.5570
   -21.5235 -21.5191 -21.5182 -21.5167 -21.4583 -21.4515 -21.4475 -21.4468
   -21.4283 -21.4254 -21.4186 -21.4151 -21.3979 -21.3897 -21.3842 -21.3815
   -21.3790 -21.3710 -21.3700 -21.3665 -21.3323 -21.3239 -21.3172 -21.3116
    -7.4315  -7.3910  -7.2871  -5.6129  -5.5959  -5.5722  -5.5474  -5.3922
    -5.3666  -5.1687  -5.1046  -4.7145  -4.6987  -3.9287  -3.7541  -3.4435
    -0.2916  -0.2833  -0.2446  -0.2359  -0.0048   0.0992   0.1737   0.1763
     1.2438   1.4069   1.6999   1.7239   1.8071   1.8878   1.9040   2.3426
     2.3713   2.3766   3.7163   4.3491   4.6159   4.6360   4.6664   4.9674
     4.9855   5.2670   5.2807   6.2127   6.2337   6.7644   6.7787   6.9900
     7.1526   7.2823   7.4470   7.6281   7.6427   7.6780

          k =-0.5000 0.1250 0.0000 ( 35366 PWs)   bands (ev):

   -21.8634 -21.8588 -21.8562 -21.8508 -21.8430 -21.8379 -21.8318 -21.8225
   -21.8198 -21.8095 -21.8049 -21.8040 -21.7937 -21.7874 -21.7580 -21.7516
   -21.7500 -21.7490 -21.7476 -21.7433 -21.7308 -21.7197 -21.7109 -21.7063
   -21.7001 -21.6953 -21.6922 -21.6854 -21.6821 -21.6775 -21.6754 -21.6722
   -21.6699 -21.6656 -21.6534 -21.6500 -21.6362 -21.6330 -21.6293 -21.6252
   -21.6222 -21.6179 -21.6167 -21.6157 -21.6125 -21.6123 -21.6110 -21.6082
   -21.5718 -21.5683 -21.5656 -21.5654 -21.5634 -21.5630 -21.5604 -21.5563
   -21.5245 -21.5200 -21.5193 -21.5176 -21.4626 -21.4557 -21.4537 -21.4517
   -21.4237 -21.4213 -21.4170 -21.4148 -21.3982 -21.3894 -21.3858 -21.3834
   -21.3803 -21.3727 -21.3711 -21.3682 -21.3323 -21.3240 -21.3207 -21.3153
    -7.3072  -7.2661  -7.1634  -6.3460  -6.2973  -6.2118  -5.1130  -5.0518
    -4.8506  -4.7686  -4.7039  -4.6706  -4.6412  -3.9569  -3.8166  -3.5412
    -0.6039  -0.4519  -0.0089   0.0575   0.0616   0.0883   0.3248   0.3965
     0.6796   0.9007   0.9952   1.3326   1.7742   1.8226   2.0263   2.2337
     2.5757   2.6837   4.2516   4.4303   4.5433   4.5844   4.9972   5.2365
     5.3174   5.3622   5.4707   6.1858   6.3272   6.3587   6.4926   6.6114
     7.1910   7.2596   7.5735   7.7059   7.8939   8.2899

          k =-0.5000-0.2500 0.0000 ( 35380 PWs)   bands (ev):

   -21.8628 -21.8586 -21.8557 -21.8547 -21.8442 -21.8395 -21.8282 -21.8250
   -21.8138 -21.8119 -21.8023 -21.8003 -21.7988 -21.7974 -21.7556 -21.7507
   -21.7479 -21.7430 -21.7388 -21.7372 -21.7330 -21.7308 -21.7035 -21.7028
   -21.7012 -21.6997 -21.6849 -21.6833 -21.6825 -21.6780 -21.6778 -21.6763
   -21.6675 -21.6655 -21.6610 -21.6581 -21.6350 -21.6341 -21.6262 -21.6241
   -21.6209 -21.6191 -21.6165 -21.6160 -21.6133 -21.6130 -21.6105 -21.6082
   -21.5710 -21.5681 -21.5678 -21.5643 -21.5640 -21.5606 -21.5600 -21.5577
   -21.5243 -21.5197 -21.5191 -21.5173 -21.4657 -21.4590 -21.4573 -21.4554
   -21.4207 -21.4180 -21.4164 -21.4148 -21.3972 -21.3878 -21.3856 -21.3845
   -21.3796 -21.3728 -21.3695 -21.3694 -21.3302 -21.3233 -21.3198 -21.3194
    -6.9499  -6.9408  -6.9044  -6.8740  -6.8129  -6.7789  -4.9749  -4.9608
    -4.9245  -4.9038  -4.1845  -4.1290  -4.1164  -4.0833  -3.9399  -3.9020
    -0.3618  -0.3598  -0.1819  -0.1737   0.1711   0.1717   0.1886   0.2062
     0.4906   0.5046   0.9107   0.9297   1.9286   1.9404   1.9722   1.9779
     3.2544   3.2839   3.4584   3.4878   4.9429   4.9711   5.2275   5.2388
     5.6285   5.6513   5.7793   5.7935   6.0256   6.0393   6.8489   6.8623
     7.6144   7.6275   8.3513   8.3692   8.5628   8.5693

          k =-0.2500 0.1250 0.0000 ( 35448 PWs)   bands (ev):

   -21.8738 -21.8684 -21.8642 -21.8543 -21.8448 -21.8417 -21.8299 -21.8246
   -21.8122 -21.8027 -21.8017 -21.7926 -21.7912 -21.7759 -21.7712 -21.7650
   -21.7618 -21.7549 -21.7479 -21.7445 -21.7358 -21.7331 -21.7201 -21.7113
   -21.6979 -21.6957 -21.6884 -21.6850 -21.6837 -21.6803 -21.6766 -21.6732
   -21.6682 -21.6538 -21.6505 -21.6340 -21.6302 -21.6290 -21.6247 -21.6228
   -21.6201 -21.6172 -21.6152 -21.6137 -21.6099 -21.6075 -21.6056 -21.6012
   -21.5919 -21.5881 -21.5866 -21.5833 -21.5770 -21.5731 -21.5694 -21.5641
   -21.5233 -21.5185 -21.5169 -21.5152 -21.4454 -21.4418 -21.4397 -21.4375
   -21.4229 -21.4215 -21.4187 -21.4164 -21.3958 -21.3951 -21.3890 -21.3863
   -21.3840 -21.3826 -21.3819 -21.3795 -21.3301 -21.3222 -21.3214 -21.3176
    -8.4657  -7.8541  -7.5702  -7.0820  -6.9646  -6.4633  -6.1530  -5.6144
    -4.8682  -4.5252  -3.8563  -3.5304  -3.1535  -2.8272  -2.2910  -1.2564
    -0.6240  -0.5415  -0.4735  -0.0426   0.1219   0.3140   0.5839   0.7101
     0.7656   1.0032   1.4288   1.8502   2.1825   2.2782   2.3819   2.6595
     2.7472   2.8185   4.0775   4.3175   5.0149   5.0286   5.2857   5.3929
     5.4582   5.8775   5.9461   6.2662   6.6748   6.7122   6.8673   7.0909
     7.2426   7.3314   7.3508   7.5758   7.6024   7.6378

     the Fermi energy is     2.6696 ev

!    total energy              =   -2857.30131175 Ry
     estimated scf accuracy    <       0.00000032 Ry
     smearing contrib. (-TS)   =      -0.00719229 Ry
     internal energy E=F+TS    =   -2857.29411946 Ry

     The total energy is F=E-TS. E is the sum of the following terms:
     one-electron contribution =   -7691.26897634 Ry
     hartree contribution      =    3945.83538401 Ry
     xc contribution           =    -697.03489677 Ry
     ewald contribution        =    1585.17436964 Ry

     convergence has been achieved in   7 iterations

     Forces acting on atoms (cartesian axes, Ry/au):

     atom    1 type  1   force =    -0.00022179    0.00184639   -0.00368147
     atom    2 type  1   force =     0.00044979    0.00373522   -0.00014252
     atom    3 type  1   force =    -0.00530602   -0.00384577    0.00203498
     atom    4 type  1   force =     0.00592839   -0.00244827    0.00316979
     atom    5 type  1   force =    -0.00494668    0.00098685   -0.00633433
     atom    6 type  1   force =     0.00427550    0.00543752    0.00231085
     atom    7 type  1   force =    -0.00283101   -0.00593303   -0.00678516
     atom    8 type  1   force =     0.00301957    0.00077912    0.00696348
     atom    9 type  1   force =     0.00190505   -0.00179573   -0.00646776
     atom   10 type  1   force =    -0.00158597   -0.00115431   -0.00090966
     atom   11 type  1   force =     0.00306705    0.00090780    0.00868153
     atom   12 type  1   force =    -0.00275582    0.00077244    0.00169600
     atom   13 type  1   force =    -0.00363436    0.00119477   -0.00010044
     atom   14 type  1   force =     0.00292718    0.00297360   -0.00301392
     atom   15 type  1   force =    -0.00096057   -0.00267999   -0.00407695
     atom   16 type  1   force =     0.00066968   -0.00077662    0.00665559

     Total force =     0.025631     Total SCF correction =     0.002887
     SCF correction compared to forces is large: reduce conv_thr to get better values
     Energy error            =      1.0E-03 Ry
     Gradient error          =      8.7E-03 Ry/Bohr

     number of scf cycles    =   2
     number of bfgs steps    =   1

     energy             old  =   -2857.3002821360 Ry
     energy             new  =   -2857.3013117469 Ry

     CASE: energy            _new < energy            _old

     new trust radius        =       0.0140630164 bohr
     new conv_thr            =       0.0000000868 Ry


ATOMIC_POSITIONS (angstrom)
Ge           -0.0126713388        0.0117307733        4.9927644754
Ge            2.0265088213       -0.0115203856        6.4528417011
Ge            2.0406458614        2.0397677061        7.8818011641
Ge           -0.0088260045        2.0322797434        9.3277420203
Ge            0.0072485399       -0.0095410549       10.7682025982
Ge            2.0393251765       -0.0069164877       12.2048403477
Ge            2.0459540950        2.0382428259       13.6542694902
Ge           -0.0012484783        2.0544797881       15.1006763306
Ge           -0.0137157713        4.0587926734        5.0085298658
Ge            2.0305273481        4.0805528786        6.4598778439
Ge            2.0290714402        6.1141418576        7.8784780514
Ge           -0.0042541319        6.1093762054        9.3292168122
Ge            0.0079803909        4.0685918744       10.7625279862
Ge            2.0412211432        4.0727144299       12.2173182360
Ge            2.0584365950        6.1228259309       13.6423976077
Ge            0.0147374218        6.1220427466       15.0920680037



     Writing output data file ./out/ge.save/
     NEW-OLD atomic charge density approx. for the potential

     total cpu time spent up to now is       82.1 secs

     Self-consistent Calculation

     iteration #  1     ecut=    60.00 Ry     beta= 0.40
     Davidson diagonalization with overlap
     ethr =  1.00E-06,  avg # of iterations =  4.0

     Threshold (ethr) on eigenvalues was too large:
     Diagonalizing with lowered threshold

     Davidson diagonalization with overlap
     ethr =  4.97E-08,  avg # of iterations =  4.0

     total cpu time spent up to now is       91.9 secs

     total energy              =   -2857.30207105 Ry
     estimated scf accuracy    <       0.00011390 Ry

     iteration #  2     ecut=    60.00 Ry     beta= 0.40
     Davidson diagonalization with overlap
     ethr =  5.08E-08,  avg # of iterations =  3.3

     total cpu time spent up to now is       95.5 secs

     total energy              =   -2857.30169679 Ry
     estimated scf accuracy    <       0.01759363 Ry

     iteration #  3     ecut=    60.00 Ry     beta= 0.40
     Davidson diagonalization with overlap
     ethr =  5.08E-08,  avg # of iterations =  2.1

     total cpu time spent up to now is       98.7 secs

     total energy              =   -2857.30210974 Ry
     estimated scf accuracy    <       0.00010333 Ry

     iteration #  4     ecut=    60.00 Ry     beta= 0.40
     Davidson diagonalization with overlap
     ethr =  4.61E-08,  avg # of iterations =  2.0

     total cpu time spent up to now is      101.8 secs

     total energy              =   -2857.30211640 Ry
     estimated scf accuracy    <       0.00005206 Ry

     iteration #  5     ecut=    60.00 Ry     beta= 0.40
     Davidson diagonalization with overlap
     ethr =  2.32E-08,  avg # of iterations =  1.5

     total cpu time spent up to now is      104.8 secs

     total energy              =   -2857.30212058 Ry
     estimated scf accuracy    <       0.00001322 Ry

     iteration #  6     ecut=    60.00 Ry     beta= 0.40
     Davidson diagonalization with overlap
     ethr =  5.90E-09,  avg # of iterations =  2.0

     total cpu time spent up to now is      108.0 secs

     total energy              =   -2857.30212207 Ry
     estimated scf accuracy    <       0.00000128 Ry

     iteration #  7     ecut=    60.00 Ry     beta= 0.40
     Davidson diagonalization with overlap
     ethr =  5.73E-10,  avg # of iterations =  2.5

     total cpu time spent up to now is      111.2 secs

     total energy              =   -2857.30212226 Ry
     estimated scf accuracy    <       0.00000028 Ry

     iteration #  8     ecut=    60.00 Ry     beta= 0.40
     Davidson diagonalization with overlap
     ethr =  1.27E-10,  avg # of iterations =  2.0

     total cpu time spent up to now is      114.4 secs

     End of self-consistent calculation

          k = 0.0000 0.0000 0.0000 ( 35449 PWs)   bands (ev):

   -21.8675 -21.8631 -21.8602 -21.8549 -21.8417 -21.8379 -21.8372 -21.8215
   -21.8146 -21.8004 -21.7928 -21.7876 -21.7863 -21.7844 -21.7833 -21.7805
   -21.7786 -21.7755 -21.7493 -21.7492 -21.7462 -21.7450 -21.7365 -21.7057
   -21.7041 -21.6751 -21.6741 -21.6720 -21.6660 -21.6652 -21.6648 -21.6640
   -21.6627 -21.6621 -21.6305 -21.6282 -21.6250 -21.6243 -21.6236 -21.6229
   -21.6211 -21.6151 -21.6090 -21.6062 -21.6056 -21.6034 -21.6024 -21.5970
   -21.5952 -21.5927 -21.5914 -21.5914 -21.5909 -21.5896 -21.5826 -21.5819
   -21.5338 -21.5298 -21.5282 -21.5270 -21.4314 -21.4298 -21.4282 -21.4253
   -21.4183 -21.4162 -21.4113 -21.4085 -21.3843 -21.3782 -21.3763 -21.3756
   -21.3751 -21.3744 -21.3644 -21.3629 -21.3352 -21.3291 -21.3283 -21.3269
    -9.0485  -8.3746  -7.4347  -7.4270  -7.3787  -7.0052  -6.9991  -6.0850
    -4.5260  -3.9364  -3.9211  -2.8142  -2.7889  -2.7057  -0.7711   0.0415
     0.0444   0.4310   0.4376   1.0918   1.1394   1.1587   1.7009   1.7064
     1.8186   1.8241   1.9673   2.0502   2.0675   2.1527   2.7760   2.8517
     2.8567   3.2561   3.9495   3.9986   4.3192   4.5102   4.5765   4.5812
     4.6502   4.9367   5.0240   5.0811   5.0910   5.2104   5.3962   6.2691
     7.1187   7.1247   7.1768   7.2191   7.2319   7.3575

          k = 0.0000 0.1250 0.0000 ( 35486 PWs)   bands (ev):

   -21.8684 -21.8632 -21.8617 -21.8573 -21.8498 -21.8458 -21.8288 -21.8239
   -21.8083 -21.8009 -21.7963 -21.7931 -21.7913 -21.7835 -21.7807 -21.7784
   -21.7744 -21.7721 -21.7640 -21.7561 -21.7440 -21.7368 -21.7281 -21.7059
   -21.7035 -21.6795 -21.6772 -21.6764 -21.6731 -21.6680 -21.6675 -21.6639
   -21.6575 -21.6533 -21.6330 -21.6327 -21.6278 -21.6247 -21.6238 -21.6234
   -21.6211 -21.6109 -21.6097 -21.6083 -21.6066 -21.6054 -21.6038 -21.6027
   -21.5979 -21.5967 -21.5947 -21.5928 -21.5879 -21.5844 -21.5798 -21.5779
   -21.5349 -21.5310 -21.5291 -21.5272 -21.4372 -21.4352 -21.4328 -21.4307
   -21.4130 -21.4100 -21.4088 -21.4062 -21.3843 -21.3779 -21.3761 -21.3758
   -21.3753 -21.3733 -21.3678 -21.3651 -21.3355 -21.3298 -21.3281 -21.3255
    -8.9314  -8.2682  -8.0502  -7.5361  -7.2977  -6.9207  -6.6643  -6.1096
    -4.4644  -4.1544  -3.5756  -2.8193  -2.7380  -2.2606  -1.1850  -0.2575
    -0.0296   0.2872   0.4893   0.5314   0.9614   1.1711   1.2483   1.6740
     1.8739   2.0038   2.0065   2.1273   2.2881   2.4133   2.7360   2.8806
     2.9591   3.0100   3.9124   4.1014   4.3616   4.5100   4.6421   4.6950
     4.7999   4.8959   5.0719   5.1032   5.2970   5.6070   6.1765   6.3533
     6.8840   7.1397   7.1905   7.2231   7.2921   7.3325

          k = 0.0000-0.2500 0.0000 ( 35510 PWs)   bands (ev):

   -21.8688 -21.8632 -21.8614 -21.8594 -21.8530 -21.8507 -21.8304 -21.8272
   -21.8034 -21.8011 -21.7981 -21.7960 -21.7901 -21.7865 -21.7823 -21.7793
   -21.7696 -21.7685 -21.7682 -21.7650 -21.7408 -21.7381 -21.7110 -21.7074
   -21.6946 -21.6914 -21.6788 -21.6760 -21.6749 -21.6731 -21.6702 -21.6685
   -21.6485 -21.6462 -21.6449 -21.6444 -21.6294 -21.6262 -21.6254 -21.6229
   -21.6179 -21.6154 -21.6091 -21.6065 -21.6052 -21.6035 -21.6024 -21.6020
   -21.6017 -21.5980 -21.5969 -21.5936 -21.5878 -21.5847 -21.5742 -21.5730
   -21.5349 -21.5308 -21.5291 -21.5285 -21.4392 -21.4375 -21.4354 -21.4334
   -21.4078 -21.4063 -21.4053 -21.4044 -21.3864 -21.3783 -21.3778 -21.3770
   -21.3770 -21.3701 -21.3699 -21.3684 -21.3353 -21.3295 -21.3278 -21.3267
    -8.5907  -8.5859  -7.9726  -7.9564  -7.0992  -7.0844  -6.2657  -6.2498
    -4.3200  -4.3054  -3.1734  -3.1687  -2.0955  -2.0720  -1.1747  -1.1537
    -0.3330  -0.3254   0.8126   0.8185   0.8457   0.8523   1.3878   1.3957
     2.0816   2.0953   2.1061   2.1266   2.5795   2.5969   2.6226   2.6270
     2.8982   2.9262   3.7463   3.7638   4.4857   4.4902   4.6683   4.6817
     4.7868   4.7997   5.0939   5.1039   6.5685   6.5897   6.7129   6.7207
     6.9000   6.9114   7.4898   7.5007   7.5070   7.5308

          k = 0.2500 0.0000 0.0000 ( 35445 PWs)   bands (ev):

   -21.8742 -21.8677 -21.8673 -21.8526 -21.8453 -21.8370 -21.8350 -21.8231
   -21.8124 -21.8020 -21.8004 -21.7957 -21.7889 -21.7753 -21.7647 -21.7613
   -21.7586 -21.7574 -21.7552 -21.7492 -21.7342 -21.7265 -21.7247 -21.7226
   -21.6988 -21.6941 -21.6931 -21.6852 -21.6822 -21.6801 -21.6736 -21.6722
   -21.6630 -21.6613 -21.6404 -21.6334 -21.6292 -21.6266 -21.6242 -21.6224
   -21.6208 -21.6198 -21.6167 -21.6141 -21.6104 -21.6078 -21.6061 -21.6031
   -21.5906 -21.5861 -21.5838 -21.5813 -21.5746 -21.5743 -21.5709 -21.5693
   -21.5204 -21.5168 -21.5141 -21.5129 -21.4353 -21.4290 -21.4283 -21.4268
   -21.4263 -21.4253 -21.4169 -21.4133 -21.3907 -21.3879 -21.3860 -21.3807
   -21.3788 -21.3773 -21.3756 -21.3734 -21.3252 -21.3194 -21.3175 -21.3146
    -8.5859  -7.9539  -7.0576  -6.9421  -6.9330  -6.5050  -6.5000  -5.5919
    -4.9239  -4.1994  -4.1844  -3.4966  -3.3181  -3.3006  -2.2200  -1.0872
    -0.5709  -0.2999  -0.2973  -0.0263  -0.0222   0.3907   0.7949   0.8039
     0.8234   1.4295   1.6305   2.0703   2.2033   2.3159   2.3231   2.4922
     2.4981   2.7143   4.1461   4.4674   4.6386   4.8081   4.9434   5.0646
     5.0708   5.9030   5.9087   6.0817   6.4145   6.7161   7.0014   7.0304
     7.0388   7.4489   7.4623   7.4684   7.5656   7.7619

          k = 0.2500 0.1250 0.0000 ( 35448 PWs)   bands (ev):

   -21.8742 -21.8689 -21.8654 -21.8550 -21.8469 -21.8449 -21.8314 -21.8255
   -21.8096 -21.8004 -21.7990 -21.7925 -21.7916 -21.7752 -21.7706 -21.7644
   -21.7606 -21.7540 -21.7475 -21.7447 -21.7356 -21.7327 -21.7214 -21.7119
   -21.6992 -21.6960 -21.6897 -21.6858 -21.6835 -21.6799 -21.6765 -21.6725
   -21.6682 -21.6555 -21.6527 -21.6352 -21.6308 -21.6291 -21.6246 -21.6230
   -21.6205 -21.6176 -21.6153 -21.6144 -21.6094 -21.6077 -21.6056 -21.6017
   -21.5890 -21.5854 -21.5827 -21.5807 -21.5773 -21.5741 -21.5712 -21.5658
   -21.5204 -21.5167 -21.5144 -21.5128 -21.4393 -21.4362 -21.4347 -21.4328
   -21.4175 -21.4160 -21.4131 -21.4112 -21.3893 -21.3879 -21.3843 -21.3810
   -21.3783 -21.3775 -21.3771 -21.3752 -21.3254 -21.3194 -21.3181 -21.3152
    -8.4673  -7.8436  -7.5715  -7.0725  -6.9595  -6.4519  -6.1457  -5.6075
    -4.8666  -4.5264  -3.8583  -3.5271  -3.1524  -2.8270  -2.2901  -1.2535
    -0.6209  -0.5389  -0.4736  -0.0420   0.1265   0.3267   0.5933   0.7135
     0.7681   1.0097   1.4274   1.8563   2.1775   2.2742   2.3796   2.6573
     2.7421   2.8167   4.0808   4.3201   5.0171   5.0273   5.2977   5.3908
     5.4530   5.8735   5.9421   6.2571   6.6685   6.7117   6.8563   7.0933
     7.2406   7.3217   7.3519   7.5801   7.6001   7.6330

          k = 0.2500-0.2500 0.0000 ( 35426 PWs)   bands (ev):

   -21.8739 -21.8691 -21.8621 -21.8603 -21.8485 -21.8467 -21.8311 -21.8286
   -21.8058 -21.8040 -21.7986 -21.7952 -21.7787 -21.7778 -21.7724 -21.7689
   -21.7581 -21.7542 -21.7402 -21.7372 -21.7361 -21.7349 -21.7107 -21.7075
   -21.7010 -21.6984 -21.6870 -21.6849 -21.6792 -21.6776 -21.6743 -21.6729
   -21.6715 -21.6705 -21.6443 -21.6438 -21.6304 -21.6288 -21.6240 -21.6216
   -21.6199 -21.6175 -21.6147 -21.6140 -21.6095 -21.6075 -21.6045 -21.6024
   -21.5879 -21.5843 -21.5832 -21.5800 -21.5790 -21.5754 -21.5668 -21.5654
   -21.5196 -21.5157 -21.5141 -21.5128 -21.4426 -21.4404 -21.4375 -21.4366
   -21.4128 -21.4125 -21.4112 -21.4106 -21.3873 -21.3863 -21.3807 -21.3804
   -21.3789 -21.3771 -21.3770 -21.3768 -21.3251 -21.3191 -21.3183 -21.3169
    -8.1223  -8.1162  -7.5359  -7.5180  -6.7110  -6.6947  -5.7447  -5.7299
    -4.7240  -4.7161  -3.6579  -3.6561  -2.6493  -2.6299  -1.9208  -1.8997
    -0.6162  -0.6066  -0.5646  -0.5549   0.1757   0.1902   0.3828   0.3978
     1.0885   1.0975   1.4282   1.4314   2.3820   2.3934   2.4541   2.4674
     3.1480   3.1735   3.4963   3.5176   5.2078   5.2209   5.5712   5.5831
     6.1275   6.1392   6.4328   6.4436   6.8207   6.8301   7.0471   7.0557
     7.6231   7.6298   7.6544   7.6659   7.9564   7.9759

          k =-0.5000 0.0000 0.0000 ( 35284 PWs)   bands (ev):

   -21.8638 -21.8583 -21.8578 -21.8467 -21.8404 -21.8353 -21.8346 -21.8202
   -21.8173 -21.8151 -21.8040 -21.7972 -21.7906 -21.7696 -21.7691 -21.7565
   -21.7556 -21.7501 -21.7472 -21.7419 -21.7265 -21.7150 -21.7110 -21.7081
   -21.7033 -21.6880 -21.6874 -21.6854 -21.6835 -21.6802 -21.6794 -21.6689
   -21.6667 -21.6646 -21.6455 -21.6391 -21.6360 -21.6350 -21.6323 -21.6240
   -21.6223 -21.6191 -21.6172 -21.6148 -21.6135 -21.6120 -21.6105 -21.6076
   -21.5722 -21.5689 -21.5650 -21.5621 -21.5604 -21.5589 -21.5578 -21.5568
   -21.5205 -21.5172 -21.5147 -21.5140 -21.4508 -21.4446 -21.4416 -21.4413
   -21.4228 -21.4200 -21.4132 -21.4105 -21.3905 -21.3844 -21.3783 -21.3765
   -21.3742 -21.3679 -21.3669 -21.3642 -21.3275 -21.3215 -21.3127 -21.3090
    -7.4411  -7.3827  -7.2819  -5.5987  -5.5880  -5.5835  -5.5618  -5.3765
    -5.3616  -5.1567  -5.0940  -4.6992  -4.6907  -3.9205  -3.7541  -3.4356
    -0.2875  -0.2810  -0.2462  -0.2415  -0.0036   0.1002   0.1791   0.1817
     1.2457   1.4058   1.6848   1.7392   1.8025   1.8910   1.9003   2.3424
     2.3758   2.3790   3.7138   4.3430   4.6197   4.6333   4.6634   4.9733
     4.9908   5.2747   5.2789   6.2083   6.2269   6.7581   6.7777   6.9748
     7.1573   7.2855   7.4337   7.6206   7.6314   7.6802

          k =-0.5000 0.1250 0.0000 ( 35366 PWs)   bands (ev):

   -21.8643 -21.8601 -21.8580 -21.8538 -21.8431 -21.8389 -21.8322 -21.8226
   -21.8175 -21.8098 -21.8035 -21.8007 -21.7931 -21.7884 -21.7557 -21.7511
   -21.7496 -21.7494 -21.7474 -21.7426 -21.7296 -21.7199 -21.7130 -21.7055
   -21.7004 -21.6973 -21.6933 -21.6839 -21.6814 -21.6789 -21.6742 -21.6717
   -21.6708 -21.6675 -21.6543 -21.6529 -21.6363 -21.6338 -21.6296 -21.6264
   -21.6223 -21.6183 -21.6171 -21.6149 -21.6138 -21.6120 -21.6108 -21.6080
   -21.5734 -21.5668 -21.5650 -21.5649 -21.5622 -21.5594 -21.5581 -21.5575
   -21.5215 -21.5181 -21.5156 -21.5150 -21.4551 -21.4488 -21.4477 -21.4462
   -21.4182 -21.4157 -21.4116 -21.4101 -21.3907 -21.3841 -21.3800 -21.3784
   -21.3754 -21.3692 -21.3684 -21.3659 -21.3273 -21.3217 -21.3163 -21.3128
    -7.3164  -7.2577  -7.1581  -6.3538  -6.2901  -6.2064  -5.1003  -5.0407
    -4.8435  -4.7564  -4.6985  -4.6664  -4.6339  -3.9480  -3.8179  -3.5337
    -0.6026  -0.4583  -0.0033   0.0591   0.0629   0.0892   0.3272   0.4008
     0.6683   0.9058   0.9974   1.3363   1.7735   1.8179   2.0257   2.2335
     2.5804   2.6874   4.2586   4.4355   4.5449   4.5821   4.9888   5.2324
     5.3147   5.3625   5.4747   6.1884   6.3264   6.3463   6.4995   6.6080
     7.1804   7.2555   7.5590   7.6982   7.8888   8.2875

          k =-0.5000-0.2500 0.0000 ( 35380 PWs)   bands (ev):

   -21.8636 -21.8596 -21.8582 -21.8573 -21.8443 -21.8406 -21.8280 -21.8258
   -21.8113 -21.8089 -21.8016 -21.7999 -21.7992 -21.7971 -21.7534 -21.7482
   -21.7464 -21.7420 -21.7384 -21.7365 -21.7350 -21.7330 -21.7054 -21.7026
   -21.7020 -21.7002 -21.6859 -21.6847 -21.6811 -21.6779 -21.6766 -21.6751
   -21.6681 -21.6672 -21.6635 -21.6601 -21.6353 -21.6340 -21.6269 -21.6255
   -21.6209 -21.6188 -21.6175 -21.6153 -21.6145 -21.6125 -21.6105 -21.6079
   -21.5727 -21.5691 -21.5648 -21.5616 -21.5614 -21.5601 -21.5598 -21.5575
   -21.5213 -21.5178 -21.5154 -21.5147 -21.4582 -21.4524 -21.4511 -21.4500
   -21.4151 -21.4121 -21.4113 -21.4102 -21.3897 -21.3821 -21.3805 -21.3793
   -21.3747 -21.3687 -21.3678 -21.3666 -21.3250 -21.3192 -21.3176 -21.3164
    -6.9531  -6.9443  -6.8985  -6.8745  -6.8023  -6.7799  -4.9621  -4.9483
    -4.9118  -4.8945  -4.1568  -4.1262  -4.1163  -4.0956  -3.9267  -3.9037
    -0.3608  -0.3566  -0.1913  -0.1856   0.1722   0.1738   0.1938   0.2097
     0.4943   0.5068   0.9149   0.9318   1.9296   1.9396   1.9692   1.9757
     3.2583   3.2931   3.4603   3.4943   4.9512   4.9701   5.2180   5.2290
     5.6332   5.6457   5.7847   5.7947   6.0122   6.0301   6.8545   6.8678
     7.6007   7.6134   8.3469   8.3629   8.5657   8.5758

          k =-0.2500 0.1250 0.0000 ( 35448 PWs)   bands (ev):

   -21.8742 -21.8689 -21.8654 -21.8551 -21.8468 -21.8450 -21.8314 -21.8254
   -21.8096 -21.8006 -21.7988 -21.7925 -21.7915 -21.7753 -21.7705 -21.7644
   -21.7606 -21.7540 -21.7475 -21.7447 -21.7353 -21.7330 -21.7214 -21.7117
   -21.6990 -21.6965 -21.6897 -21.6855 -21.6836 -21.6798 -21.6766 -21.6725
   -21.6682 -21.6554 -21.6528 -21.6352 -21.6309 -21.6290 -21.6248 -21.6228
   -21.6206 -21.6176 -21.6153 -21.6143 -21.6095 -21.6075 -21.6057 -21.6018
   -21.5891 -21.5853 -21.5827 -21.5806 -21.5776 -21.5738 -21.5713 -21.5659
   -21.5204 -21.5168 -21.5144 -21.5128 -21.4393 -21.4362 -21.4347 -21.4328
   -21.4175 -21.4160 -21.4131 -21.4112 -21.3893 -21.3879 -21.3842 -21.3811
   -21.3784 -21.3774 -21.3771 -21.3752 -21.3254 -21.3194 -21.3181 -21.3152
    -8.4673  -7.8437  -7.5714  -7.0727  -6.9592  -6.4520  -6.1458  -5.6074
    -4.8666  -4.5263  -3.8584  -3.5269  -3.1524  -2.8270  -2.2901  -1.2537
    -0.6206  -0.5385  -0.4741  -0.0423   0.1265   0.3270   0.5932   0.7141
     0.7675   1.0098   1.4274   1.8560   2.1777   2.2741   2.3795   2.6573
     2.7423   2.8167   4.0807   4.3201   5.0161   5.0279   5.2964   5.3919
     5.4537   5.8736   5.9419   6.2570   6.6690   6.7109   6.8562   7.0934
     7.2414   7.3266   7.3459   7.5794   7.6023   7.6318

     the Fermi energy is     2.6701 ev

!    total energy              =   -2857.30212228 Ry
     estimated scf accuracy    <       0.00000004 Ry
     smearing contrib. (-TS)   =      -0.00724798 Ry
     internal energy E=F+TS    =   -2857.29487431 Ry

     The total energy is F=E-TS. E is the sum of the following terms:
     one-electron contribution =   -7687.93901127 Ry
     hartree contribution      =    3944.17577455 Ry
     xc contribution           =    -697.02887595 Ry
     ewald contribution        =    1583.49723837 Ry

     convergence has been achieved in   8 iterations

     Forces acting on atoms (cartesian axes, Ry/au):

     atom    1 type  1   force =    -0.00008471    0.00195046   -0.00326322
     atom    2 type  1   force =     0.00030237    0.00186687    0.00015450
     atom    3 type  1   force =    -0.00277805   -0.00253160    0.00160679
     atom    4 type  1   force =     0.00316577   -0.00123630    0.00229505
     atom    5 type  1   force =    -0.00262670    0.00049662   -0.00402913
     atom    6 type  1   force =     0.00217220    0.00318109    0.00059890
     atom    7 type  1   force =    -0.00168264   -0.00342511   -0.00441300
     atom    8 type  1   force =     0.00180073    0.00094883    0.00530896
     atom    9 type  1   force =     0.00115926   -0.00188507   -0.00539542
     atom   10 type  1   force =    -0.00091653   -0.00060593   -0.00038573
     atom   11 type  1   force =     0.00182024    0.00095118    0.00583153
     atom   12 type  1   force =    -0.00152775    0.00051270    0.00171483
     atom   13 type  1   force =    -0.00219067    0.00072189   -0.00030014
     atom   14 type  1   force =     0.00167907    0.00134692   -0.00243469
     atom   15 type  1   force =    -0.00074724   -0.00155498   -0.00248444
     atom   16 type  1   force =     0.00045465   -0.00073755    0.00519520

     Total force =     0.016986     Total SCF correction =     0.001098
     Energy error            =      8.1E-04 Ry
     Gradient error          =      5.8E-03 Ry/Bohr

     number of scf cycles    =   3
     number of bfgs steps    =   2

     energy             old  =   -2857.3013117469 Ry
     energy             new  =   -2857.3021222830 Ry

     CASE: energy            _new < energy            _old

     new trust radius        =       0.0210945247 bohr
     new conv_thr            =       0.0000000583 Ry


ATOMIC_POSITIONS (angstrom)
Ge           -0.0128679661        0.0147707688        4.9874208876
Ge            2.0270544724       -0.0077102610        6.4529388412
Ge            2.0350927466        2.0351584370        7.8845275122
Ge           -0.0025532144        2.0297612616        9.3317768704
Ge            0.0020216543       -0.0085275430       10.7607763578
Ge            2.0437340711       -0.0008684418       12.2065773545
Ge            2.0427676587        2.0316897207       13.6462175940
Ge            0.0021566299        2.0559026631       15.1098098576
Ge           -0.0115411865        4.0558501122        4.9995268920
Ge            2.0287702329        4.0793464626        6.4590229285
Ge            2.0325159712        6.1156234549        7.8889921789
Ge           -0.0072285198        6.1103102826        9.3319222771
Ge            0.0038633103        4.0699493392       10.7621482536
Ge            2.0444426986        4.0755900903       12.2132102875
Ge            2.0571615075        6.1198570566       13.6377477294
Ge            0.0155510416        6.1208581018       15.1009367122



     Writing output data file ./out/ge.save/
     NEW-OLD atomic charge density approx. for the potential

     total cpu time spent up to now is      115.3 secs

     Self-consistent Calculation

     iteration #  1     ecut=    60.00 Ry     beta= 0.40
     Davidson diagonalization with overlap
     ethr =  1.00E-06,  avg # of iterations =  5.3

     Threshold (ethr) on eigenvalues was too large:
     Diagonalizing with lowered threshold

     Davidson diagonalization with overlap
     ethr =  9.70E-08,  avg # of iterations =  4.0

     total cpu time spent up to now is      126.0 secs

     total energy              =   -2857.30265202 Ry
     estimated scf accuracy    <       0.00022106 Ry

     iteration #  2     ecut=    60.00 Ry     beta= 0.40
     Davidson diagonalization with overlap
     ethr =  9.87E-08,  avg # of iterations =  4.9

     total cpu time spent up to now is      129.8 secs

     total energy              =   -2857.30199620 Ry
     estimated scf accuracy    <       0.03051805 Ry

     iteration #  3     ecut=    60.00 Ry     beta= 0.40
     Davidson diagonalization with overlap
     ethr =  9.87E-08,  avg # of iterations =  3.6

     total cpu time spent up to now is      133.3 secs

     total energy              =   -2857.30271100 Ry
     estimated scf accuracy    <       0.00033830 Ry

     iteration #  4     ecut=    60.00 Ry     beta= 0.40
     Davidson diagonalization with overlap
     ethr =  9.87E-08,  avg # of iterations =  1.9

     total cpu time spent up to now is      136.4 secs

     total energy              =   -2857.30273729 Ry
     estimated scf accuracy    <       0.00010470 Ry

     iteration #  5     ecut=    60.00 Ry     beta= 0.40
     Davidson diagonalization with overlap
     ethr =  4.67E-08,  avg # of iterations =  1.6

     total cpu time spent up to now is      139.4 secs

     total energy              =   -2857.30274561 Ry
     estimated scf accuracy    <       0.00000562 Ry

     iteration #  6     ecut=    60.00 Ry     beta= 0.40
     Davidson diagonalization with overlap
     ethr =  2.51E-09,  avg # of iterations =  2.5

     total cpu time spent up to now is      142.7 secs

     total energy              =   -2857.30274629 Ry
     estimated scf accuracy    <       0.00000185 Ry

     iteration #  7     ecut=    60.00 Ry     beta= 0.40
     Davidson diagonalization with overlap
     ethr =  8.25E-10,  avg # of iterations =  2.1

     total cpu time spent up to now is      145.9 secs

     total energy              =   -2857.30274660 Ry
     estimated scf accuracy    <       0.00000040 Ry

     iteration #  8     ecut=    60.00 Ry     beta= 0.40
     Davidson diagonalization with overlap
     ethr =  1.77E-10,  avg # of iterations =  2.0

     total cpu time spent up to now is      149.1 secs

     total energy              =   -2857.30274664 Ry
     estimated scf accuracy    <       0.00000019 Ry

     iteration #  9     ecut=    60.00 Ry     beta= 0.40
     Davidson diagonalization with overlap
     ethr =  8.66E-11,  avg # of iterations =  2.0

     total cpu time spent up to now is      152.3 secs

     End of self-consistent calculation

          k = 0.0000 0.0000 0.0000 ( 35449 PWs)   bands (ev):

   -21.8694 -21.8648 -21.8615 -21.8554 -21.8468 -21.8442 -21.8424 -21.8248
   -21.8168 -21.7956 -21.7906 -21.7875 -21.7868 -21.7838 -21.7807 -21.7793
   -21.7778 -21.7740 -21.7497 -21.7475 -21.7473 -21.7463 -21.7356 -21.7071
   -21.7047 -21.6753 -21.6741 -21.6722 -21.6687 -21.6671 -21.6657 -21.6647
   -21.6639 -21.6635 -21.6334 -21.6282 -21.6275 -21.6256 -21.6244 -21.6238
   -21.6224 -21.6175 -21.6076 -21.6068 -21.6045 -21.6042 -21.6011 -21.5956
   -21.5948 -21.5934 -21.5931 -21.5903 -21.5870 -21.5861 -21.5860 -21.5818
   -21.5281 -21.5269 -21.5248 -21.5235 -21.4222 -21.4208 -21.4203 -21.4192
   -21.4093 -21.4080 -21.4033 -21.4023 -21.3721 -21.3690 -21.3679 -21.3677
   -21.3672 -21.3659 -21.3555 -21.3546 -21.3267 -21.3250 -21.3225 -21.3224
    -9.0519  -8.3568  -7.4389  -7.4300  -7.3667  -6.9764  -6.9734  -6.0745
    -4.5298  -3.9350  -3.9318  -2.8137  -2.8073  -2.7130  -0.7844   0.0427
     0.0506   0.4303   0.4303   1.1154   1.1520   1.1554   1.6942   1.7062
     1.8092   1.8245   1.9927   2.0947   2.0975   2.1530   2.7916   2.8358
     2.8502   3.2504   3.9492   3.9983   4.3195   4.5153   4.5699   4.5781
     4.6676   4.9391   5.0215   5.1037   5.1058   5.2152   5.3984   6.2614
     7.1196   7.1267   7.1753   7.2322   7.2381   7.3574

          k = 0.0000 0.1250 0.0000 ( 35486 PWs)   bands (ev):

   -21.8702 -21.8651 -21.8628 -21.8580 -21.8553 -21.8524 -21.8333 -21.8271
   -21.8096 -21.7973 -21.7928 -21.7915 -21.7899 -21.7829 -21.7793 -21.7775
   -21.7752 -21.7728 -21.7626 -21.7577 -21.7441 -21.7359 -21.7282 -21.7062
   -21.7052 -21.6805 -21.6789 -21.6759 -21.6732 -21.6693 -21.6673 -21.6645
   -21.6606 -21.6553 -21.6368 -21.6348 -21.6266 -21.6263 -21.6253 -21.6237
   -21.6227 -21.6119 -21.6113 -21.6084 -21.6070 -21.6054 -21.6040 -21.6013
   -21.5975 -21.5939 -21.5909 -21.5882 -21.5857 -21.5839 -21.5829 -21.5816
   -21.5289 -21.5281 -21.5254 -21.5237 -21.4281 -21.4264 -21.4247 -21.4241
   -21.4045 -21.4023 -21.4011 -21.3995 -21.3721 -21.3689 -21.3679 -21.3673
   -21.3669 -21.3648 -21.3594 -21.3565 -21.3276 -21.3251 -21.3232 -21.3208
    -8.9347  -8.2503  -8.0530  -7.5215  -7.2839  -6.9001  -6.6525  -6.0989
    -4.4679  -4.1565  -3.5857  -2.8273  -2.7475  -2.2631  -1.1939  -0.2617
    -0.0268   0.2746   0.4992   0.5302   0.9697   1.1951   1.2467   1.6911
     1.8618   2.0066   2.0323   2.1588   2.3069   2.4087   2.7521   2.8747
     2.9451   3.0054   3.9111   4.1146   4.3554   4.5275   4.6395   4.6895
     4.8172   4.9057   5.0602   5.1191   5.3007   5.6111   6.1750   6.3450
     6.8839   7.1588   7.1967   7.2310   7.2780   7.3306

          k = 0.0000-0.2500 0.0000 ( 35510 PWs)   bands (ev):

   -21.8705 -21.8652 -21.8623 -21.8601 -21.8585 -21.8575 -21.8341 -21.8305
   -21.8026 -21.7995 -21.7962 -21.7924 -21.7879 -21.7862 -21.7823 -21.7785
   -21.7710 -21.7683 -21.7672 -21.7664 -21.7406 -21.7371 -21.7111 -21.7078
   -21.6967 -21.6931 -21.6801 -21.6760 -21.6748 -21.6730 -21.6706 -21.6692
   -21.6524 -21.6495 -21.6471 -21.6464 -21.6276 -21.6273 -21.6252 -21.6249
   -21.6210 -21.6174 -21.6079 -21.6067 -21.6059 -21.6046 -21.6042 -21.6033
   -21.5980 -21.5952 -21.5917 -21.5891 -21.5860 -21.5844 -21.5774 -21.5765
   -21.5287 -21.5281 -21.5254 -21.5249 -21.4299 -21.4283 -21.4281 -21.4271
   -21.3994 -21.3985 -21.3980 -21.3975 -21.3742 -21.3708 -21.3700 -21.3690
   -21.3653 -21.3622 -21.3610 -21.3605 -21.3270 -21.3248 -21.3231 -21.3218
    -8.5920  -8.5904  -7.9501  -7.9444  -7.0793  -7.0723  -6.2473  -6.2463
    -4.3177  -4.3135  -3.1832  -3.1812  -2.0986  -2.0812  -1.1677  -1.1513
    -0.3445  -0.3388   0.8155   0.8182   0.8491   0.8595   1.4105   1.4169
     2.0952   2.1136   2.1198   2.1230   2.6033   2.6038   2.6221   2.6305
     2.8861   2.9181   3.7418   3.7643   4.4994   4.5016   4.6669   4.6756
     4.8105   4.8192   5.0891   5.0933   6.5730   6.5775   6.7248   6.7322
     6.8963   6.9008   7.4782   7.4812   7.5186   7.5353

          k = 0.2500 0.0000 0.0000 ( 35445 PWs)   bands (ev):

   -21.8765 -21.8705 -21.8690 -21.8536 -21.8515 -21.8410 -21.8392 -21.8257
   -21.8099 -21.8023 -21.7991 -21.7901 -21.7884 -21.7743 -21.7637 -21.7595
   -21.7589 -21.7560 -21.7551 -21.7509 -21.7333 -21.7284 -21.7252 -21.7241
   -21.7003 -21.6956 -21.6948 -21.6860 -21.6804 -21.6795 -21.6744 -21.6740
   -21.6634 -21.6629 -21.6443 -21.6356 -21.6312 -21.6256 -21.6252 -21.6232
   -21.6223 -21.6218 -21.6164 -21.6158 -21.6094 -21.6087 -21.6057 -21.6053
   -21.5876 -21.5806 -21.5789 -21.5785 -21.5768 -21.5744 -21.5724 -21.5709
   -21.5155 -21.5143 -21.5110 -21.5107 -21.4253 -21.4217 -21.4193 -21.4187
   -21.4181 -21.4170 -21.4083 -21.4050 -21.3806 -21.3781 -21.3757 -21.3730
   -21.3707 -21.3692 -21.3675 -21.3667 -21.3175 -21.3162 -21.3115 -21.3109
    -8.5898  -7.9374  -7.0484  -6.9463  -6.9377  -6.4780  -6.4749  -5.5811
    -4.9213  -4.1972  -4.1964  -3.4895  -3.3097  -3.3074  -2.2203  -1.0841
    -0.5631  -0.2965  -0.2921  -0.0159  -0.0142   0.4063   0.8088   0.8134
     0.8161   1.4426   1.6356   2.0674   2.2000   2.3084   2.3178   2.4856
     2.4980   2.7094   4.1412   4.4648   4.6355   4.8125   4.9458   5.0712
     5.0809   5.8899   5.9001   6.0784   6.4022   6.7053   7.0091   7.0187
     7.0335   7.4435   7.4533   7.4622   7.5605   7.7585

          k = 0.2500 0.1250 0.0000 ( 35448 PWs)   bands (ev):

   -21.8764 -21.8712 -21.8682 -21.8578 -21.8511 -21.8494 -21.8345 -21.8277
   -21.8069 -21.7985 -21.7937 -21.7929 -21.7914 -21.7751 -21.7700 -21.7642
   -21.7591 -21.7527 -21.7477 -21.7454 -21.7353 -21.7327 -21.7235 -21.7128
   -21.7012 -21.6974 -21.6921 -21.6866 -21.6835 -21.6790 -21.6763 -21.6719
   -21.6686 -21.6585 -21.6569 -21.6378 -21.6324 -21.6292 -21.6247 -21.6234
   -21.6220 -21.6190 -21.6164 -21.6148 -21.6090 -21.6077 -21.6061 -21.6031
   -21.5869 -21.5801 -21.5790 -21.5775 -21.5759 -21.5747 -21.5731 -21.5686
   -21.5154 -21.5143 -21.5113 -21.5104 -21.4292 -21.4276 -21.4268 -21.4256
   -21.4088 -21.4074 -21.4043 -21.4030 -21.3790 -21.3768 -21.3758 -21.3733
   -21.3701 -21.3697 -21.3693 -21.3681 -21.3175 -21.3162 -21.3122 -21.3116
    -8.4711  -7.8271  -7.5746  -7.0586  -6.9499  -6.4337  -6.1344  -5.5965
    -4.8641  -4.5279  -3.8623  -3.5216  -3.1510  -2.8261  -2.2895  -1.2502
    -0.6159  -0.5341  -0.4750  -0.0423   0.1334   0.3485   0.6079   0.7226
     0.7708   1.0212   1.4257   1.8654   2.1695   2.2668   2.3757   2.6535
     2.7342   2.8137   4.0856   4.3238   5.0149   5.0273   5.3127   5.3889
     5.4485   5.8661   5.9345   6.2412   6.6562   6.7106   6.8367   7.0969
     7.2375   7.3132   7.3432   7.5826   7.6006   7.6257

          k = 0.2500-0.2500 0.0000 ( 35426 PWs)   bands (ev):

   -21.8761 -21.8714 -21.8650 -21.8643 -21.8522 -21.8507 -21.8335 -21.8307
   -21.8035 -21.7992 -21.7961 -21.7939 -21.7792 -21.7770 -21.7733 -21.7694
   -21.7570 -21.7524 -21.7405 -21.7374 -21.7358 -21.7345 -21.7137 -21.7100
   -21.7012 -21.6988 -21.6876 -21.6846 -21.6814 -21.6801 -21.6742 -21.6741
   -21.6722 -21.6712 -21.6474 -21.6466 -21.6320 -21.6293 -21.6235 -21.6220
   -21.6205 -21.6192 -21.6158 -21.6142 -21.6095 -21.6076 -21.6050 -21.6033
   -21.5853 -21.5821 -21.5790 -21.5773 -21.5757 -21.5747 -21.5693 -21.5688
   -21.5144 -21.5135 -21.5110 -21.5101 -21.4327 -21.4317 -21.4298 -21.4292
   -21.4042 -21.4037 -21.4024 -21.4021 -21.3766 -21.3744 -21.3737 -21.3730
   -21.3711 -21.3697 -21.3691 -21.3687 -21.3168 -21.3151 -21.3137 -21.3132
    -8.1235  -8.1218  -7.5134  -7.5083  -6.6938  -6.6875  -5.7269  -5.7254
    -4.7200  -4.7173  -3.6584  -3.6547  -2.6428  -2.6321  -1.9113  -1.9040
    -0.6145  -0.6089  -0.5660  -0.5590   0.1969   0.2079   0.3942   0.4015
     1.0974   1.1035   1.4361   1.4384   2.3744   2.3854   2.4442   2.4609
     3.1476   3.1800   3.4932   3.5199   5.2052   5.2188   5.5880   5.5903
     6.1245   6.1254   6.4102   6.4275   6.8070   6.8214   7.0348   7.0489
     7.6159   7.6253   7.6576   7.6605   7.9625   7.9822

          k =-0.5000 0.0000 0.0000 ( 35284 PWs)   bands (ev):

   -21.8670 -21.8623 -21.8614 -21.8531 -21.8419 -21.8372 -21.8359 -21.8208
   -21.8154 -21.8149 -21.8016 -21.7917 -21.7899 -21.7722 -21.7716 -21.7611
   -21.7536 -21.7480 -21.7416 -21.7406 -21.7250 -21.7189 -21.7102 -21.7081
   -21.7023 -21.6910 -21.6903 -21.6841 -21.6830 -21.6827 -21.6822 -21.6673
   -21.6670 -21.6660 -21.6506 -21.6402 -21.6396 -21.6351 -21.6339 -21.6255
   -21.6219 -21.6207 -21.6170 -21.6170 -21.6132 -21.6118 -21.6098 -21.6084
   -21.5750 -21.5727 -21.5624 -21.5619 -21.5590 -21.5574 -21.5527 -21.5525
   -21.5147 -21.5142 -21.5109 -21.5104 -21.4383 -21.4352 -21.4322 -21.4321
   -21.4139 -21.4120 -21.4049 -21.4026 -21.3787 -21.3765 -21.3694 -21.3686
   -21.3659 -21.3644 -21.3608 -21.3605 -21.3203 -21.3172 -21.3058 -21.3050
    -7.4593  -7.3709  -7.2707  -5.6036  -5.5971  -5.5779  -5.5703  -5.3510
    -5.3469  -5.1373  -5.0757  -4.6763  -4.6752  -3.9110  -3.7516  -3.4222
    -0.2826  -0.2782  -0.2504  -0.2478  -0.0018   0.1011   0.1858   0.1931
     1.2474   1.4040   1.6588   1.7570   1.8059   1.8928   1.8981   2.3414
     2.3819   2.3848   3.7087   4.3321   4.6167   4.6278   4.6658   4.9826
     4.9994   5.2762   5.2868   6.1978   6.2157   6.7444   6.7755   6.9493
     7.1614   7.2946   7.4106   7.6012   7.6180   7.6860

          k =-0.5000 0.1250 0.0000 ( 35366 PWs)   bands (ev):

   -21.8679 -21.8644 -21.8616 -21.8594 -21.8443 -21.8406 -21.8335 -21.8236
   -21.8149 -21.8103 -21.8014 -21.7959 -21.7916 -21.7904 -21.7564 -21.7531
   -21.7512 -21.7476 -21.7423 -21.7413 -21.7283 -21.7211 -21.7168 -21.7047
   -21.7008 -21.7005 -21.6949 -21.6815 -21.6814 -21.6808 -21.6739 -21.6727
   -21.6711 -21.6701 -21.6578 -21.6564 -21.6373 -21.6349 -21.6301 -21.6291
   -21.6225 -21.6193 -21.6176 -21.6168 -21.6133 -21.6120 -21.6099 -21.6088
   -21.5763 -21.5699 -21.5676 -21.5609 -21.5588 -21.5579 -21.5545 -21.5532
   -21.5157 -21.5149 -21.5118 -21.5114 -21.4428 -21.4392 -21.4384 -21.4370
   -21.4093 -21.4074 -21.4033 -21.4021 -21.3786 -21.3762 -21.3715 -21.3704
   -21.3672 -21.3653 -21.3627 -21.3622 -21.3195 -21.3178 -21.3096 -21.3088
    -7.3344  -7.2459  -7.1467  -6.3695  -6.2795  -6.1955  -5.0807  -5.0223
    -4.8374  -4.7367  -4.6915  -4.6542  -4.6212  -3.9375  -3.8168  -3.5205
    -0.6008  -0.4691   0.0060   0.0610   0.0644   0.0904   0.3306   0.4083
     0.6495   0.9118   1.0036   1.3440   1.7723   1.8103   2.0247   2.2330
     2.5881   2.6935   4.2700   4.4438   4.5456   4.5780   4.9727   5.2250
     5.3075   5.3627   5.4827   6.1906   6.3214   6.3274   6.5043   6.6080
     7.1617   7.2492   7.5340   7.6862   7.8808   8.2820

          k =-0.5000-0.2500 0.0000 ( 35380 PWs)   bands (ev):

   -21.8670 -21.8651 -21.8627 -21.8609 -21.8455 -21.8421 -21.8293 -21.8270
[...]
     Davidson diagonalization with overlap
     ethr =  2.11E-10,  avg # of iterations =  4.8

     total cpu time spent up to now is       84.7 secs

     total energy              =   -2857.46658569 Ry
     estimated scf accuracy    <       0.00000018 Ry

     iteration #  5     ecut=    60.00 Ry     beta= 0.40
     Davidson diagonalization with overlap
     ethr =  7.88E-11,  avg # of iterations =  2.0

     total cpu time spent up to now is       87.8 secs

     total energy              =   -2857.46658571 Ry
     estimated scf accuracy    <       0.00000010 Ry

     iteration #  6     ecut=    60.00 Ry     beta= 0.40
     Davidson diagonalization with overlap
     ethr =  4.48E-11,  avg # of iterations =  2.0

     total cpu time spent up to now is       91.0 secs

     total energy              =   -2857.46658572 Ry
     estimated scf accuracy    <       0.00000002 Ry

     iteration #  7     ecut=    60.00 Ry     beta= 0.40
     Davidson diagonalization with overlap
     ethr =  8.07E-12,  avg # of iterations =  2.0

     total cpu time spent up to now is       94.2 secs

     End of self-consistent calculation

          k = 0.0000 0.0000 0.0000 ( 35449 PWs)   bands (ev):

   -22.0261 -22.0191 -21.9842 -21.9791 -21.9505 -21.9443 -21.9033 -21.8979
   -21.8810 -21.8760 -21.7497 -21.7414 -21.7369 -21.7265 -21.7102 -21.6968
   -21.6865 -21.6777 -21.6718 -21.6658 -21.6578 -21.6311 -21.6171 -21.6064
   -21.5988 -21.5956 -21.5866 -21.5831 -21.5760 -21.5667 -21.5633 -21.5605
   -21.5475 -21.5409 -21.5387 -21.5357 -21.5292 -21.5243 -21.5185 -21.5144
   -21.5088 -21.5060 -21.4980 -21.4970 -21.4918 -21.4823 -21.4809 -21.4787
   -21.4706 -21.4691 -21.4543 -21.4089 -21.3997 -21.3904 -21.3828 -21.3679
   -21.3636 -21.3580 -21.3563 -21.3481 -21.3419 -21.3372 -21.3337 -21.3310
   -21.3280 -21.3214 -21.2984 -21.2964 -21.2912 -21.2895 -21.1124 -21.1055
   -21.0962 -21.0894 -21.0891 -21.0809 -21.0447 -21.0352 -21.0222 -21.0131
    -9.0620  -8.6754  -7.8090  -7.3338  -7.2381  -6.6504  -6.6441  -6.3495
    -4.8236  -3.8373  -3.6591  -3.0888  -2.0935  -2.0510  -1.5422   0.0215
     0.3161   0.3367   0.5182   0.6836   0.7769   1.1780   1.5288   1.7769
     1.8117   1.8914   1.9561   2.1601   2.4453   2.4941   2.7433   2.8322
     3.3183   3.3970   3.8579   3.9840   4.0889   4.3306   4.6085   4.7141
     4.8221   5.0081   5.2741   5.8212   6.0428   6.1968   6.2550   6.8064
     6.8332   6.9441   6.9491   7.1515   7.2070   7.6000

          k = 0.0000 0.1250 0.0000 ( 35486 PWs)   bands (ev):

   -22.0267 -22.0199 -21.9848 -21.9796 -21.9519 -21.9457 -21.9033 -21.8982
   -21.8813 -21.8764 -21.7512 -21.7420 -21.7384 -21.7282 -21.7119 -21.6991
   -21.6870 -21.6784 -21.6701 -21.6676 -21.6568 -21.6322 -21.6179 -21.6097
   -21.5969 -21.5965 -21.5884 -21.5842 -21.5723 -21.5680 -21.5623 -21.5594
   -21.5475 -21.5449 -21.5374 -21.5368 -21.5305 -21.5225 -21.5177 -21.5168
   -21.5081 -21.5067 -21.4992 -21.4975 -21.4928 -21.4860 -21.4845 -21.4765
   -21.4749 -21.4690 -21.4549 -21.4110 -21.3998 -21.3918 -21.3855 -21.3679
   -21.3637 -21.3578 -21.3570 -21.3475 -21.3428 -21.3359 -21.3330 -21.3303
   -21.3276 -21.3226 -21.2984 -21.2973 -21.2912 -21.2902 -21.1137 -21.1071
   -21.0962 -21.0901 -21.0893 -21.0819 -21.0455 -21.0359 -21.0230 -21.0140
    -8.9615  -8.6181  -7.9707  -7.7014  -7.2582  -6.6695  -6.4045  -6.1671
    -4.6317  -3.8983  -3.3543  -3.2400  -2.4539  -1.8842  -1.2618  -0.2118
    -0.0482   0.2823   0.4177   0.7159   0.7460   0.9560   1.3486   1.6033
     1.7255   1.9597   1.9785   2.2059   2.4447   2.6083   2.6210   2.8204
     3.2102   3.5078   3.6356   4.1044   4.3300   4.6011   4.8100   4.9493
     5.0962   5.3610   5.8115   5.8995   6.0953   6.2728   6.3888   6.5177
     6.7538   6.9380   7.0966   7.2795   7.4099   7.4877

          k = 0.0000-0.2500 0.0000 ( 35510 PWs)   bands (ev):

   -22.0266 -22.0197 -21.9851 -21.9799 -21.9515 -21.9456 -21.9053 -21.9003
   -21.8819 -21.8769 -21.7515 -21.7427 -21.7402 -21.7298 -21.7132 -21.7004
   -21.6873 -21.6785 -21.6711 -21.6681 -21.6579 -21.6320 -21.6185 -21.6094
   -21.5967 -21.5942 -21.5890 -21.5848 -21.5701 -21.5669 -21.5587 -21.5574
   -21.5507 -21.5488 -21.5408 -21.5376 -21.5299 -21.5221 -21.5180 -21.5154
   -21.5109 -21.5036 -21.4983 -21.4971 -21.4947 -21.4901 -21.4874 -21.4764
   -21.4755 -21.4705 -21.4551 -21.4118 -21.4012 -21.3930 -21.3856 -21.3691
   -21.3649 -21.3599 -21.3566 -21.3474 -21.3429 -21.3367 -21.3325 -21.3319
   -21.3270 -21.3212 -21.2989 -21.2970 -21.2921 -21.2896 -21.1147 -21.1084
   -21.0978 -21.0908 -21.0890 -21.0807 -21.0456 -21.0360 -21.0231 -21.0142
    -8.7729  -8.6076  -8.2164  -7.8451  -7.3152  -6.7972  -6.1779  -6.0028
    -4.2702  -4.0213  -3.4835  -3.0944  -2.5167  -1.8289  -1.0738  -0.6431
    -0.4029   0.1118   0.5531   0.7152   0.8168   1.1326   1.1594   1.4106
     1.5092   1.7640   1.9672   2.3077   2.4136   2.6803   2.7603   2.8607
     3.1034   3.4274   3.6081   3.9562   4.5797   4.6254   4.7284   4.8901
     5.7121   5.8473   6.1315   6.1613   6.5959   6.6616   6.6654   6.8118
     6.8578   6.9551   7.2688   7.3761   7.3892   7.5079

          k = 0.2500 0.0000 0.0000 ( 35445 PWs)   bands (ev):

   -22.0287 -22.0221 -21.9833 -21.9781 -21.9522 -21.9458 -21.9087 -21.9030
   -21.8731 -21.8675 -21.7561 -21.7452 -21.7375 -21.7280 -21.7112 -21.6981
   -21.6960 -21.6677 -21.6658 -21.6537 -21.6418 -21.6215 -21.6122 -21.6083
   -21.6040 -21.5993 -21.5947 -21.5872 -21.5772 -21.5763 -21.5617 -21.5603
   -21.5543 -21.5491 -21.5450 -21.5402 -21.5288 -21.5232 -21.5194 -21.5162
   -21.5078 -21.5011 -21.4942 -21.4883 -21.4831 -21.4772 -21.4735 -21.4723
   -21.4702 -21.4666 -21.4468 -21.4308 -21.4120 -21.4011 -21.3768 -21.3737
   -21.3615 -21.3606 -21.3523 -21.3476 -21.3440 -21.3390 -21.3317 -21.3258
   -21.3235 -21.3190 -21.3022 -21.2903 -21.2891 -21.2780 -21.1056 -21.0994
   -21.0988 -21.0921 -21.0891 -21.0807 -21.0510 -21.0415 -21.0252 -21.0162
    -8.5727  -8.1900  -7.3814  -6.8479  -6.7642  -6.1691  -6.1633  -5.9981
    -5.3393  -4.0289  -3.9775  -3.8405  -2.7823  -2.7112  -2.5668  -1.2832
    -0.6395  -0.2964  -0.2014  -0.1580  -0.0226   0.4385   0.8927   0.9968
     1.0672   1.2395   1.5690   1.6760   1.9271   2.2782   2.3787   2.6045
     3.7981   3.8636   4.0253   4.2722   4.4979   4.9820   5.0270   5.5226
     5.5674   5.8791   6.0812   6.1787   6.4822   6.7153   6.8417   7.1292
     7.2397   7.4854   7.5535   7.6817   7.8161   7.9341

          k = 0.2500 0.1250 0.0000 ( 35448 PWs)   bands (ev):

   -22.0282 -22.0215 -21.9831 -21.9778 -21.9523 -21.9461 -21.9088 -21.9030
   -21.8737 -21.8680 -21.7558 -21.7454 -21.7381 -21.7287 -21.7115 -21.6985
   -21.6977 -21.6681 -21.6654 -21.6537 -21.6430 -21.6194 -21.6138 -21.6098
   -21.6045 -21.6013 -21.5893 -21.5828 -21.5770 -21.5731 -21.5616 -21.5596
   -21.5543 -21.5491 -21.5442 -21.5390 -21.5314 -21.5246 -21.5198 -21.5160
   -21.5088 -21.5001 -21.4960 -21.4886 -21.4855 -21.4796 -21.4759 -21.4724
   -21.4691 -21.4660 -21.4476 -21.4318 -21.4126 -21.4016 -21.3765 -21.3736
   -21.3613 -21.3599 -21.3531 -21.3479 -21.3443 -21.3377 -21.3310 -21.3256
   -21.3230 -21.3198 -21.3020 -21.2903 -21.2888 -21.2778 -21.1075 -21.1007
   -21.0994 -21.0923 -21.0884 -21.0799 -21.0503 -21.0409 -21.0249 -21.0160
    -8.4686  -8.1244  -7.5018  -7.2577  -6.8367  -6.2590  -5.9211  -5.7519
    -5.1501  -4.2906  -3.9628  -3.5403  -2.9638  -2.5522  -2.2601  -1.3441
    -0.7166  -0.5408  -0.3383  -0.1068   0.0535   0.3906   0.6141   0.7778
     0.9532   1.2074   1.3676   1.6835   1.8897   2.0604   2.2960   2.5884
     3.8892   3.9971   4.4949   4.5989   4.9140   5.0861   5.3330   5.4114
     5.6570   5.7646   6.1104   6.5480   6.6449   6.6897   6.9068   7.1022
     7.3331   7.4813   7.6439   7.7463   7.8884   8.0697

          k = 0.2500-0.2500 0.0000 ( 35426 PWs)   bands (ev):

   -22.0278 -22.0213 -21.9835 -21.9782 -21.9524 -21.9461 -21.9080 -21.9021
   -21.8732 -21.8675 -21.7557 -21.7456 -21.7384 -21.7292 -21.7123 -21.6993
   -21.6985 -21.6678 -21.6637 -21.6532 -21.6420 -21.6187 -21.6144 -21.6107
   -21.6053 -21.5993 -21.5848 -21.5817 -21.5758 -21.5661 -21.5599 -21.5580
   -21.5530 -21.5521 -21.5419 -21.5367 -21.5343 -21.5264 -21.5197 -21.5138
   -21.5098 -21.4994 -21.4955 -21.4894 -21.4857 -21.4829 -21.4765 -21.4731
   -21.4669 -21.4657 -21.4483 -21.4332 -21.4124 -21.4014 -21.3763 -21.3732
   -21.3613 -21.3596 -21.3531 -21.3471 -21.3433 -21.3368 -21.3300 -21.3250
   -21.3228 -21.3188 -21.3022 -21.2900 -21.2887 -21.2778 -21.1074 -21.1008
   -21.0977 -21.0906 -21.0886 -21.0801 -21.0499 -21.0405 -21.0254 -21.0164
    -8.2655  -8.1072  -7.7506  -7.4032  -6.9059  -6.4376  -5.7747  -5.5034
    -4.8393  -4.5284  -3.9794  -3.4931  -2.9030  -2.3131  -1.8523  -1.6465
    -0.7758  -0.6467  -0.4762  -0.3564  -0.1076   0.2877   0.4467   0.6084
     1.0625   1.1679   1.5283   1.5771   1.8389   1.9516   2.3110   2.5410
     3.9032   4.0206   4.4106   4.7212   4.8621   5.1166   5.4756   5.8474
     6.0649   6.1963   6.3820   6.6398   6.7516   6.9371   7.2645   7.4192
     7.5915   7.6837   7.8451   7.8831   7.9385   8.0239

          k =-0.5000 0.0000 0.0000 ( 35284 PWs)   bands (ev):

   -22.0280 -22.0214 -21.9808 -21.9754 -21.9523 -21.9459 -21.8972 -21.8905
   -21.8787 -21.8729 -21.7503 -21.7386 -21.7338 -21.7247 -21.7117 -21.7028
   -21.7003 -21.6645 -21.6614 -21.6512 -21.6263 -21.6167 -21.6090 -21.6055
   -21.6017 -21.6000 -21.5891 -21.5760 -21.5716 -21.5706 -21.5609 -21.5600
   -21.5480 -21.5473 -21.5440 -21.5381 -21.5351 -21.5306 -21.5249 -21.5240
   -21.5108 -21.4933 -21.4908 -21.4822 -21.4805 -21.4751 -21.4746 -21.4664
   -21.4633 -21.4613 -21.4407 -21.4359 -21.4281 -21.3897 -21.3883 -21.3549
   -21.3515 -21.3501 -21.3483 -21.3462 -21.3435 -21.3420 -21.3348 -21.3206
   -21.3199 -21.3175 -21.3031 -21.2872 -21.2772 -21.2762 -21.1003 -21.0995
   -21.0931 -21.0927 -21.0876 -21.0787 -21.0400 -21.0370 -21.0311 -21.0278
    -7.2883  -7.2863  -7.1971  -6.3538  -6.2896  -5.4581  -5.4514  -5.4360
    -5.3913  -5.2117  -5.2061  -4.0701  -4.0123  -3.9709  -3.6112  -3.4845
    -0.3918  -0.3475  -0.2731  -0.1637  -0.0610   0.1438   0.5189   0.6533
     0.8328   1.1523   1.4555   1.5557   1.8687   2.0001   2.0332   2.1461
     3.2810   3.3066   3.3683   3.9982   4.2834   4.7221   4.9286   5.2724
     5.3696   6.1030   6.1364   6.2022   6.4348   6.8467   6.9389   7.0839
     7.3579   7.3914   7.4359   7.5189   7.7502   8.2743

          k =-0.5000 0.1250 0.0000 ( 35366 PWs)   bands (ev):

   -22.0287 -22.0221 -21.9822 -21.9767 -21.9536 -21.9473 -21.8977 -21.8910
   -21.8799 -21.8740 -21.7521 -21.7397 -21.7346 -21.7255 -21.7129 -21.7047
   -21.7017 -21.6663 -21.6625 -21.6534 -21.6308 -21.6208 -21.6073 -21.6060
   -21.5987 -21.5946 -21.5896 -21.5752 -21.5713 -21.5707 -21.5621 -21.5598
   -21.5549 -21.5508 -21.5429 -21.5372 -21.5362 -21.5323 -21.5259 -21.5232
   -21.5122 -21.4960 -21.4911 -21.4864 -21.4856 -21.4751 -21.4744 -21.4679
   -21.4669 -21.4636 -21.4451 -21.4363 -21.4301 -21.3892 -21.3880 -21.3562
   -21.3529 -21.3499 -21.3492 -21.3472 -21.3448 -21.3426 -21.3354 -21.3205
   -21.3200 -21.3181 -21.3056 -21.2883 -21.2783 -21.2776 -21.1019 -21.1010
   -21.0952 -21.0937 -21.0880 -21.0791 -21.0413 -21.0377 -21.0323 -21.0286
    -7.1674  -7.1669  -7.0803  -6.3864  -6.3030  -6.1438  -6.1049  -6.0680
    -4.6424  -4.5334  -4.4968  -4.1035  -4.0246  -3.9613  -3.6357  -3.5392
    -0.6876  -0.3429  -0.2269  -0.0710   0.1497   0.2005   0.5136   0.5680
     0.6886   1.0903   1.1763   1.2030   1.4307   1.7374   1.7457   2.0874
     3.3325   3.4468   4.0094   4.4553   4.6054   5.0143   5.2040   5.2250
     5.5720   5.8562   6.0931   6.2261   6.2681   6.5431   6.7475   6.8147
     7.3090   7.5611   7.8089   7.9577   8.2794   8.3878

          k =-0.5000-0.2500 0.0000 ( 35380 PWs)   bands (ev):

   -22.0283 -22.0218 -21.9822 -21.9768 -21.9542 -21.9480 -21.8976 -21.8909
   -21.8810 -21.8748 -21.7525 -21.7399 -21.7346 -21.7255 -21.7133 -21.7060
   -21.7014 -21.6673 -21.6625 -21.6548 -21.6332 -21.6223 -21.6079 -21.6032
   -21.5976 -21.5890 -21.5842 -21.5741 -21.5686 -21.5670 -21.5641 -21.5620
   -21.5602 -21.5481 -21.5410 -21.5369 -21.5365 -21.5332 -21.5246 -21.5203
   -21.5129 -21.4982 -21.4907 -21.4894 -21.4874 -21.4731 -21.4720 -21.4708
   -21.4694 -21.4659 -21.4490 -21.4366 -21.4316 -21.3869 -21.3861 -21.3570
   -21.3530 -21.3505 -21.3488 -21.3464 -21.3453 -21.3424 -21.3346 -21.3205
   -21.3193 -21.3178 -21.3054 -21.2881 -21.2784 -21.2781 -21.1027 -21.1005
   -21.0960 -21.0932 -21.0884 -21.0793 -21.0413 -21.0370 -21.0323 -21.0278
    -6.9091  -6.8616  -6.8486  -6.7685  -6.5965  -6.5445  -6.3155  -6.2342
    -4.2877  -4.1389  -4.1102  -4.0230  -3.9464  -3.8380  -3.7784  -3.7566
    -0.6076  -0.4348  -0.1601  -0.0651  -0.0581   0.1537   0.2623   0.3154
     0.8366   0.8913   0.9574   1.0366   1.4728   1.5777   1.8107   2.0247
     3.3937   3.5332   4.4173   4.5398   4.6549   4.8808   5.0609   5.4825
     5.5733   5.6616   6.1085   6.3802   6.4991   6.6709   6.8602   7.0270
     7.6718   8.1323   8.1540   8.3536   8.3956   8.7053

          k =-0.2500 0.1250 0.0000 ( 35448 PWs)   bands (ev):

   -22.0282 -22.0215 -21.9832 -21.9778 -21.9523 -21.9461 -21.9088 -21.9030
   -21.8737 -21.8680 -21.7558 -21.7454 -21.7381 -21.7287 -21.7116 -21.6986
   -21.6977 -21.6680 -21.6655 -21.6537 -21.6430 -21.6194 -21.6137 -21.6098
   -21.6045 -21.6011 -21.5893 -21.5829 -21.5768 -21.5731 -21.5617 -21.5596
   -21.5544 -21.5491 -21.5443 -21.5390 -21.5315 -21.5244 -21.5199 -21.5159
   -21.5088 -21.5001 -21.4960 -21.4885 -21.4858 -21.4799 -21.4753 -21.4725
   -21.4692 -21.4660 -21.4477 -21.4319 -21.4127 -21.4015 -21.3763 -21.3735
   -21.3613 -21.3598 -21.3530 -21.3479 -21.3443 -21.3377 -21.3310 -21.3257
   -21.3230 -21.3198 -21.3020 -21.2902 -21.2888 -21.2778 -21.1075 -21.1007
   -21.0994 -21.0923 -21.0884 -21.0799 -21.0503 -21.0409 -21.0249 -21.0160
    -8.4686  -8.1245  -7.5017  -7.2576  -6.8368  -6.2586  -5.9201  -5.7526
    -5.1510  -4.2931  -3.9601  -3.5441  -2.9629  -2.5461  -2.2599  -1.3452
    -0.7204  -0.5376  -0.3382  -0.1076   0.0507   0.3886   0.6143   0.7787
     0.9549   1.2104   1.3676   1.6820   1.8866   2.0614   2.2943   2.5900
     3.8911   3.9962   4.4905   4.6047   4.9162   5.0859   5.3323   5.4026
     5.6630   5.7693   6.1135   6.5471   6.6387   6.6922   6.9093   7.1006
     7.3267   7.4753   7.6540   7.7421   7.8886   8.0736

     the Fermi energy is     3.0018 ev

!    total energy              =   -2857.46658573 Ry
     estimated scf accuracy    <          2.1E-09 Ry
     smearing contrib. (-TS)   =      -0.00062172 Ry
     internal energy E=F+TS    =   -2857.46596400 Ry

     The total energy is F=E-TS. E is the sum of the following terms:
     one-electron contribution =   -8127.99105950 Ry
     hartree contribution      =    4165.04231105 Ry
     xc contribution           =    -697.34699313 Ry
     ewald contribution        =    1802.82977758 Ry

     convergence has been achieved in   7 iterations

     Forces acting on atoms (cartesian axes, Ry/au):

     atom    1 type  1   force =     0.00004463    0.00028942    0.00006815
     atom    2 type  1   force =     0.00021977   -0.00005794   -0.00065879
     atom    3 type  1   force =     0.00010748   -0.00008715    0.00044898
     atom    4 type  1   force =    -0.00011939   -0.00022068   -0.00014497
     atom    5 type  1   force =     0.00002531   -0.00008827    0.00015392
     atom    6 type  1   force =    -0.00003094   -0.00060462    0.00005429
     atom    7 type  1   force =    -0.00013893    0.00077670   -0.00063592
     atom    8 type  1   force =    -0.00011091   -0.00005036    0.00040849
     atom    9 type  1   force =    -0.00032062    0.00048489   -0.00034005
     atom   10 type  1   force =     0.00013557   -0.00051592    0.00030692
     atom   11 type  1   force =    -0.00003173    0.00029402   -0.00015784
     atom   12 type  1   force =     0.00000113    0.00041482   -0.00001887
     atom   13 type  1   force =     0.00017463   -0.00008416    0.00024256
     atom   14 type  1   force =    -0.00012258   -0.00006403    0.00043999
     atom   15 type  1   force =     0.00012438   -0.00018927    0.00030870
     atom   16 type  1   force =     0.00004221   -0.00029744   -0.00047554

     Total force =     0.002093     Total SCF correction =     0.000273
     SCF correction compared to forces is large: reduce conv_thr to get better values
     Energy error            =      1.3E-05 Ry
     Gradient error          =      7.8E-04 Ry/Bohr

     bfgs converged in   3 scf cycles and   2 bfgs steps
     (criteria: energy <  1.0E-04 Ry, force <  1.0E-03 Ry/Bohr)

     End of BFGS Geometry Optimization

     Final energy             =   -2857.4665857261 Ry

     File ./out/ge.bfgs deleted, as requested
Begin final coordinates

ATOMIC_POSITIONS (angstrom)
Ge            0.0159105211        1.1335130842        5.6531517590
Ge            2.0540305365       -0.0455980612        6.3744184096
Ge            2.0260719386        1.9664010976        8.0226933454
Ge           -0.0132089454        1.8780717434        9.4236614817
Ge           -0.0007494893       -0.1450549278       10.8749487233
Ge            2.0388215941       -0.1702067303       12.3377262748
Ge            2.0307303288        2.0249432273       13.6187283613
Ge           -0.0104300810        3.1720116664       14.4183803409
Ge            0.0029528447        3.5267638284        4.8910782100
Ge            2.0415035508        3.8813114103        6.3862700577
Ge            2.0406567056        6.0056457311        7.7702375167
Ge            0.0001469754        6.0788856980        9.2268581428
Ge            0.0027876192        4.0270364235       10.6554894350
Ge            2.0438424183        4.1122614024       12.0577989862
Ge            2.0339488110        5.9216860614       13.7867494145
Ge           -0.0060742201        5.5298898510       15.2753620752
End final coordinates



     Writing output data file ./out/ge.save/
 
     init_run     :      1.04s CPU      1.43s WALL (       1 calls)
     electrons    :     71.49s CPU     90.93s WALL (       3 calls)
     update_pot   :      0.11s CPU      0.12s WALL (       2 calls)
     forces       :      1.44s CPU      2.29s WALL (       3 calls)

     Called by init_run:
     wfcinit      :      0.93s CPU      1.25s WALL (       1 calls)
     potinit      :      0.02s CPU      0.03s WALL (       1 calls)
     hinit0       :      0.03s CPU      0.07s WALL (       1 calls)

     Called by electrons:
     c_bands      :     63.94s CPU     82.60s WALL (      24 calls)
     sum_band     :      7.37s CPU      8.03s WALL (      24 calls)
     v_of_rho     :      0.14s CPU      0.19s WALL (      24 calls)
     mix_rho      :      0.04s CPU      0.05s WALL (      24 calls)

     Called by c_bands:
     init_us_2    :      0.89s CPU      0.92s WALL (     520 calls)
     cegterg      :     60.25s CPU     78.78s WALL (     240 calls)

     Called by *egterg:
     cdiaghg      :      9.34s CPU     20.67s WALL (    1145 calls)
     h_psi        :     36.97s CPU     40.74s WALL (    1205 calls)
     g_psi        :      0.14s CPU      0.15s WALL (     955 calls)

     Called by h_psi:
     h_psi:calbec :      3.91s CPU      4.47s WALL (    1205 calls)
     vloc_psi     :     29.70s CPU     32.84s WALL (    1205 calls)
     add_vuspsi   :      3.03s CPU      3.09s WALL (    1205 calls)

     General routines
     calbec       :      4.71s CPU      6.10s WALL (    1325 calls)
     fft          :      0.13s CPU      0.22s WALL (     275 calls)
     ffts         :      0.01s CPU      0.01s WALL (      24 calls)
     fftw         :     33.58s CPU     37.09s WALL (  185136 calls)
 
     Parallel routines
 
     PWSCF        :   1m14.82s CPU   1m36.42s WALL

 
   This run was terminated on:   7:55:55  29Apr2025            

=------------------------------------------------------------------------------=
   JOB DONE.
=------------------------------------------------------------------------------=
