
     Program PWSCF v.6.8 starts on  7May2025 at 21:10:16 

     This program is part of the open-source Quantum ESPRESSO suite
     for quantum simulation of materials; please cite
         "P. Giannozzi et al., J. Phys.:Condens. Matter 21 395502 (2009);
         "P. Giannozzi et al., J. Phys.:Condens. Matter 29 465901 (2017);
         "P. Giannozzi et al., J. Chem. Phys. 152 154105 (2020);
          URL http://www.quantum-espresso.org", 
     in publications or presentations arising from this work. More details at
     http://www.quantum-espresso.org/quote

     Parallel version (MPI & OpenMP), running on      56 processor cores
     Number of MPI processes:                56
     Threads/MPI process:                     1

     MPI processes distributed on     1 nodes
     R & G space division:  proc/nbgrp/npool/nimage =      56
     186801 MiB available memory on the printing compute node when the environment starts
 
     Reading input from minus_e.in

     Current dimensions of program PWSCF are:
     Max number of different atomic species (ntypx) = 10
     Max number of k-points (npk) =  40000
     Max angular momentum in pseudopotentials (lmaxx) =  4
     Found symmetry operation: I + ( -0.5000 -0.5000  0.0000)
     This is a supercell, fractional translations are disabled

     Subspace diagonalization in iterative solution of the eigenvalue problem:
     one sub-group per band group will be used
     scalapack distributed-memory algorithm (size of sub-group:  7*  7 procs)

 
     Parallelization info
     --------------------
     sticks:   dense  smooth     PW     G-vecs:    dense   smooth      PW
     Min          53      53     14                 2203     2203     320
     Max          54      54     15                 2206     2206     327
     Sum        2981    2981    837               123417   123417   18133
 
     Using Slab Decomposition
 


     bravais-lattice index     =            0
     lattice parameter (alat)  =      10.8848  a.u.
     unit-cell volume          =    1276.7305 (a.u.)^3
     number of atoms/cell      =            8
     number of atomic types    =            1
     number of electrons       =       112.00
     number of Kohn-Sham states=           67
     kinetic-energy cutoff     =      80.0000  Ry
     charge density cutoff     =     320.0000  Ry
     scf convergence threshold =      1.0E-08
     mixing beta               =       0.4000
     number of iterations used =            8  plain     mixing
     Exchange-correlation= PBE
                           (   1   4   3   4   0   0   0)

     celldm(1)=  10.884822  celldm(2)=   0.000000  celldm(3)=   0.000000
     celldm(4)=   0.000000  celldm(5)=   0.000000  celldm(6)=   0.000000

     crystal axes: (cart. coord. in units of alat)
               a(1) = (   0.990000   0.000000   0.000000 )  
               a(2) = (   0.000000   1.000000   0.000000 )  
               a(3) = (   0.000000   0.000000   1.000000 )  

     reciprocal axes: (cart. coord. in units 2 pi/alat)
               b(1) = (  1.010101  0.000000  0.000000 )  
               b(2) = (  0.000000  1.000000  0.000000 )  
               b(3) = (  0.000000  0.000000  1.000000 )  


     PseudoPot. # 1 for Ge read from file:
     ./Ge.upf
     MD5 check sum: 087fa14d6c89b52166990835c3b338da
     Pseudo is Norm-conserving + core correction, Zval = 14.0
     Generated using ONCVPSP code by D. R. Hamann
     Using radial grid of 1560 points,  6 beta functions with: 
                l(1) =   0
                l(2) =   0
                l(3) =   1
                l(4) =   1
                l(5) =   2
                l(6) =   2

     atomic species   valence    mass     pseudopotential
        Ge            14.00    72.63000     Ge( 1.00)

     No symmetry found



   Cartesian axes

     site n.     atom                  positions (alat units)
         1           Ge  tau(   1) = (   0.0000000   0.0000000   0.0000000  )
         2           Ge  tau(   2) = (   0.4950000   0.5000000   0.0000000  )
         3           Ge  tau(   3) = (   0.4950000   0.0000000   0.5000000  )
         4           Ge  tau(   4) = (   0.0000000   0.5000000   0.5000000  )
         5           Ge  tau(   5) = (   0.2475000   0.2500000   0.2500000  )
         6           Ge  tau(   6) = (   0.7425000   0.7500000   0.2500000  )
         7           Ge  tau(   7) = (   0.7425000   0.2500000   0.7500000  )
         8           Ge  tau(   8) = (   0.2475000   0.7500000   0.7500000  )

     number of k points=    36  Gaussian smearing, width (Ry)=  0.0100
                       cart. coord. in units 2pi/alat
        k(    1) = (   0.0000000   0.0000000   0.0000000), wk =   0.0312500
        k(    2) = (   0.0000000   0.0000000   0.2500000), wk =   0.0625000
        k(    3) = (   0.0000000   0.0000000  -0.5000000), wk =   0.0312500
        k(    4) = (   0.0000000   0.2500000   0.0000000), wk =   0.0625000
        k(    5) = (   0.0000000   0.2500000   0.2500000), wk =   0.0625000
        k(    6) = (   0.0000000   0.2500000  -0.5000000), wk =   0.0625000
        k(    7) = (   0.0000000   0.2500000  -0.2500000), wk =   0.0625000
        k(    8) = (   0.0000000  -0.5000000   0.0000000), wk =   0.0312500
        k(    9) = (   0.0000000  -0.5000000   0.2500000), wk =   0.0625000
        k(   10) = (   0.0000000  -0.5000000  -0.5000000), wk =   0.0312500
        k(   11) = (   0.2525253   0.0000000   0.0000000), wk =   0.0625000
        k(   12) = (   0.2525253   0.0000000   0.2500000), wk =   0.0625000
        k(   13) = (   0.2525253   0.0000000  -0.5000000), wk =   0.0625000
        k(   14) = (   0.2525253   0.0000000  -0.2500000), wk =   0.0625000
        k(   15) = (   0.2525253   0.2500000   0.0000000), wk =   0.0625000
        k(   16) = (   0.2525253   0.2500000   0.2500000), wk =   0.0625000
        k(   17) = (   0.2525253   0.2500000  -0.5000000), wk =   0.0625000
        k(   18) = (   0.2525253   0.2500000  -0.2500000), wk =   0.0625000
        k(   19) = (   0.2525253  -0.5000000   0.0000000), wk =   0.0625000
        k(   20) = (   0.2525253  -0.5000000   0.2500000), wk =   0.0625000
        k(   21) = (   0.2525253  -0.5000000  -0.5000000), wk =   0.0625000
        k(   22) = (   0.2525253  -0.5000000  -0.2500000), wk =   0.0625000
        k(   23) = (   0.2525253  -0.2500000   0.0000000), wk =   0.0625000
        k(   24) = (   0.2525253  -0.2500000   0.2500000), wk =   0.0625000
        k(   25) = (   0.2525253  -0.2500000  -0.5000000), wk =   0.0625000
        k(   26) = (   0.2525253  -0.2500000  -0.2500000), wk =   0.0625000
        k(   27) = (  -0.5050505   0.0000000   0.0000000), wk =   0.0312500
        k(   28) = (  -0.5050505   0.0000000   0.2500000), wk =   0.0625000
        k(   29) = (  -0.5050505   0.0000000  -0.5000000), wk =   0.0312500
        k(   30) = (  -0.5050505   0.2500000   0.0000000), wk =   0.0625000
        k(   31) = (  -0.5050505   0.2500000   0.2500000), wk =   0.0625000
        k(   32) = (  -0.5050505   0.2500000  -0.5000000), wk =   0.0625000
        k(   33) = (  -0.5050505   0.2500000  -0.2500000), wk =   0.0625000
        k(   34) = (  -0.5050505  -0.5000000   0.0000000), wk =   0.0312500
        k(   35) = (  -0.5050505  -0.5000000   0.2500000), wk =   0.0625000
        k(   36) = (  -0.5050505  -0.5000000  -0.5000000), wk =   0.0312500

     Dense  grid:   123417 G-vectors     FFT dimensions: (  64,  64,  64)

     Estimated max dynamical RAM per process >      15.21 MB

     Estimated total dynamical RAM >     851.75 MB

     Initial potential from superposition of free atoms

     starting charge  111.99342, renormalised to  112.00000
     Starting wfcs are   72 randomized atomic wfcs

     total cpu time spent up to now is        1.5 secs

     Self-consistent Calculation

     iteration #  1     ecut=    80.00 Ry     beta= 0.40
     Davidson diagonalization with overlap
     ethr =  1.00E-02,  avg # of iterations =  3.6

     Threshold (ethr) on eigenvalues was too large:
     Diagonalizing with lowered threshold

     Davidson diagonalization with overlap
     ethr =  1.02E-04,  avg # of iterations =  5.7

     total cpu time spent up to now is       10.7 secs

     total energy              =   -1429.14137890 Ry
     estimated scf accuracy    <       0.12703569 Ry

     iteration #  2     ecut=    80.00 Ry     beta= 0.40
     Davidson diagonalization with overlap
     ethr =  1.13E-04,  avg # of iterations =  1.0

     total cpu time spent up to now is       13.5 secs

     total energy              =   -1429.13650586 Ry
     estimated scf accuracy    <       0.03940580 Ry

     iteration #  3     ecut=    80.00 Ry     beta= 0.40
     Davidson diagonalization with overlap
     ethr =  3.52E-05,  avg # of iterations =  2.5

     total cpu time spent up to now is       16.7 secs

     total energy              =   -1429.13857156 Ry
     estimated scf accuracy    <       0.00044916 Ry

     iteration #  4     ecut=    80.00 Ry     beta= 0.40
     Davidson diagonalization with overlap
     c_bands:  1 eigenvalues not converged
     c_bands:  1 eigenvalues not converged
     c_bands:  1 eigenvalues not converged
     ethr =  4.01E-07,  avg # of iterations =  9.6

     total cpu time spent up to now is       23.2 secs

     total energy              =   -1429.13866545 Ry
     estimated scf accuracy    <       0.00004676 Ry

     iteration #  5     ecut=    80.00 Ry     beta= 0.40
     Davidson diagonalization with overlap
     ethr =  4.17E-08,  avg # of iterations =  2.8

     total cpu time spent up to now is       26.5 secs

     total energy              =   -1429.13866576 Ry
     estimated scf accuracy    <       0.00000414 Ry

     iteration #  6     ecut=    80.00 Ry     beta= 0.40
     Davidson diagonalization with overlap
     ethr =  3.69E-09,  avg # of iterations =  2.2

     total cpu time spent up to now is       30.5 secs

     total energy              =   -1429.13866747 Ry
     estimated scf accuracy    <       0.00000123 Ry

     iteration #  7     ecut=    80.00 Ry     beta= 0.40
     Davidson diagonalization with overlap
     ethr =  1.10E-09,  avg # of iterations =  1.1

     total cpu time spent up to now is       33.4 secs

     total energy              =   -1429.13866725 Ry
     estimated scf accuracy    <       0.00000036 Ry

     iteration #  8     ecut=    80.00 Ry     beta= 0.40
     Davidson diagonalization with overlap
     ethr =  3.23E-10,  avg # of iterations =  2.0

     total cpu time spent up to now is       37.3 secs

     total energy              =   -1429.13866737 Ry
     estimated scf accuracy    <       0.00000004 Ry

     iteration #  9     ecut=    80.00 Ry     beta= 0.40
     Davidson diagonalization with overlap
     ethr =  3.86E-11,  avg # of iterations =  2.0

     total cpu time spent up to now is       41.0 secs

     End of self-consistent calculation

          k = 0.0000 0.0000 0.0000 ( 15451 PWs)   bands (ev):

   -15.8838 -15.8838 -15.8838 -15.8838 -15.8813 -15.8813 -15.8540 -15.8516
   -15.8516 -15.8218 -15.8208 -15.8068 -15.8068 -15.8068 -15.8068 -15.8040
   -15.8040 -15.7206 -15.7206 -15.7206 -15.7206 -15.7200 -15.7200 -15.6709
   -15.6709 -15.6677 -15.6677 -15.6677 -15.6677 -15.6336 -15.6336 -15.6299
   -15.6253 -15.6230 -15.5866 -15.5866 -15.5837 -15.5837 -15.5837 -15.5837
    -3.5012   0.2039   0.2039   0.2039   0.2039   0.2489   0.2489   5.9781
     5.9781   6.0456   6.0456   6.0456   6.0456   8.5840   8.9206   8.9206
     8.9953   9.6982   9.6982   9.7745   9.7745   9.7745   9.7745  11.4471
    11.4960  11.4960  15.2751

          k = 0.0000 0.0000 0.2500 ( 15439 PWs)   bands (ev):

   -15.8901 -15.8901 -15.8885 -15.8885 -15.8803 -15.8793 -15.8591 -15.8589
   -15.8569 -15.8405 -15.8132 -15.7999 -15.7900 -15.7900 -15.7871 -15.7871
   -15.7615 -15.7585 -15.7219 -15.7219 -15.7214 -15.7214 -15.7125 -15.6854
   -15.6854 -15.6833 -15.6822 -15.6822 -15.6647 -15.6318 -15.6318 -15.6257
   -15.6224 -15.6095 -15.5909 -15.5896 -15.5803 -15.5803 -15.5785 -15.5785
    -3.2583  -1.3663   0.2507   0.2507   0.2836   0.2836   2.0908   5.5606
     5.5606   5.6064   5.6064   6.2927   6.3042   6.4302   8.1124   8.1605
     9.6092  10.5454  10.8178  10.8178  10.8789  10.9031  10.9031  10.9229
    12.5592  12.6495  16.2266

          k = 0.0000 0.0000-0.5000 ( 15454 PWs)   bands (ev):

   -15.8946 -15.8946 -15.8946 -15.8946 -15.8704 -15.8704 -15.8686 -15.8686
   -15.8581 -15.8581 -15.7911 -15.7911 -15.7676 -15.7676 -15.7676 -15.7676
   -15.7590 -15.7590 -15.7269 -15.7269 -15.7269 -15.7269 -15.7114 -15.7114
   -15.6990 -15.6990 -15.6990 -15.6990 -15.6523 -15.6523 -15.6111 -15.6111
   -15.6078 -15.6078 -15.6054 -15.6054 -15.5746 -15.5746 -15.5746 -15.5746
    -2.5377  -2.5377   0.3097   0.3097   0.3097   0.3097   4.1940   4.1940
     5.2472   5.2472   5.2472   5.2472   7.0199   7.0199   7.0458   7.0458
    10.0281  10.0281  11.5715  11.5715  13.0507  13.0507  13.0507  13.0507
    13.6017  13.6017  13.6017

          k = 0.0000 0.2500 0.0000 ( 15439 PWs)   bands (ev):

   -15.8901 -15.8901 -15.8885 -15.8885 -15.8803 -15.8793 -15.8591 -15.8589
   -15.8569 -15.8405 -15.8132 -15.7999 -15.7900 -15.7900 -15.7871 -15.7871
   -15.7615 -15.7585 -15.7219 -15.7219 -15.7214 -15.7214 -15.7125 -15.6854
   -15.6854 -15.6833 -15.6822 -15.6822 -15.6647 -15.6318 -15.6318 -15.6257
   -15.6224 -15.6095 -15.5909 -15.5896 -15.5803 -15.5803 -15.5785 -15.5785
    -3.2583  -1.3663   0.2507   0.2507   0.2836   0.2836   2.0908   5.5606
     5.5606   5.6064   5.6064   6.2927   6.3042   6.4302   8.1124   8.1605
     9.6092  10.5454  10.8178  10.8178  10.8789  10.9031  10.9031  10.9229
    12.5592  12.6495  16.2277

          k = 0.0000 0.2500 0.2500 ( 15418 PWs)   bands (ev):

   -15.8974 -15.8873 -15.8873 -15.8853 -15.8853 -15.8823 -15.8689 -15.8650
   -15.8470 -15.8213 -15.8213 -15.8036 -15.8022 -15.7947 -15.7594 -15.7594
   -15.7497 -15.7479 -15.7479 -15.7303 -15.7225 -15.7225 -15.7204 -15.7135
   -15.6850 -15.6850 -15.6717 -15.6626 -15.6553 -15.6515 -15.6515 -15.6264
   -15.6146 -15.6016 -15.5860 -15.5848 -15.5848 -15.5829 -15.5829 -15.5721
    -3.0216  -1.2044  -1.2044  -0.2346   0.8165   1.9029   1.9029   4.8394
     5.2831   5.6494   5.6494   6.2038   6.2038   6.3963   7.3370   8.5445
    10.0740  10.4653  10.8549  10.8549  11.4511  11.4511  12.0424  12.2030
    12.8580  13.5471  14.3193

          k = 0.0000 0.2500-0.5000 ( 15402 PWs)   bands (ev):

   -15.8969 -15.8969 -15.8863 -15.8863 -15.8773 -15.8773 -15.8772 -15.8772
   -15.8381 -15.8381 -15.7972 -15.7972 -15.7889 -15.7889 -15.7634 -15.7634
   -15.7566 -15.7566 -15.7323 -15.7323 -15.7273 -15.7273 -15.7020 -15.7020
   -15.6984 -15.6984 -15.6755 -15.6755 -15.6581 -15.6580 -15.6374 -15.6374
   -15.5975 -15.5975 -15.5939 -15.5939 -15.5830 -15.5830 -15.5732 -15.5732
    -2.3233  -2.3233  -0.7750  -0.7750   1.4050   1.4050   3.6051   3.6051
     4.9003   4.9003   6.2722   6.2722   6.3340   6.3340   7.3857   7.3857
    11.3162  11.3162  11.4700  11.4700  11.5352  11.5352  13.3727  13.3727
    13.5406  13.5407  13.8397

          k = 0.0000 0.2500-0.2500 ( 15418 PWs)   bands (ev):

   -15.8974 -15.8873 -15.8873 -15.8853 -15.8853 -15.8823 -15.8689 -15.8650
   -15.8470 -15.8213 -15.8213 -15.8036 -15.8022 -15.7947 -15.7594 -15.7594
   -15.7497 -15.7479 -15.7479 -15.7303 -15.7225 -15.7225 -15.7204 -15.7135
   -15.6850 -15.6850 -15.6717 -15.6626 -15.6553 -15.6515 -15.6515 -15.6264
   -15.6146 -15.6016 -15.5860 -15.5848 -15.5848 -15.5829 -15.5829 -15.5721
    -3.0216  -1.2044  -1.2044  -0.2346   0.8165   1.9029   1.9029   4.8394
     5.2831   5.6494   5.6494   6.2038   6.2038   6.3963   7.3370   8.5445
    10.0740  10.4653  10.8549  10.8549  11.4511  11.4511  12.0424  12.2030
    12.8580  13.5471  14.3193

          k = 0.0000-0.5000 0.0000 ( 15454 PWs)   bands (ev):

   -15.8946 -15.8946 -15.8946 -15.8946 -15.8704 -15.8704 -15.8686 -15.8686
   -15.8581 -15.8581 -15.7911 -15.7911 -15.7676 -15.7676 -15.7676 -15.7676
   -15.7590 -15.7590 -15.7269 -15.7269 -15.7269 -15.7269 -15.7114 -15.7114
   -15.6990 -15.6990 -15.6990 -15.6990 -15.6523 -15.6523 -15.6111 -15.6111
   -15.6078 -15.6078 -15.6054 -15.6054 -15.5746 -15.5746 -15.5746 -15.5746
    -2.5377  -2.5377   0.3097   0.3097   0.3097   0.3097   4.1940   4.1940
     5.2472   5.2472   5.2472   5.2472   7.0199   7.0199   7.0458   7.0458
    10.0281  10.0281  11.5715  11.5716  13.0507  13.0507  13.0507  13.0507
    13.6017  13.6017  13.6017

          k = 0.0000-0.5000 0.2500 ( 15402 PWs)   bands (ev):

   -15.8969 -15.8969 -15.8863 -15.8863 -15.8773 -15.8773 -15.8772 -15.8772
   -15.8381 -15.8381 -15.7972 -15.7972 -15.7889 -15.7889 -15.7634 -15.7634
   -15.7566 -15.7566 -15.7323 -15.7323 -15.7273 -15.7273 -15.7020 -15.7020
   -15.6984 -15.6984 -15.6755 -15.6755 -15.6581 -15.6580 -15.6374 -15.6374
   -15.5975 -15.5975 -15.5939 -15.5939 -15.5830 -15.5830 -15.5732 -15.5732
    -2.3233  -2.3233  -0.7750  -0.7750   1.4050   1.4050   3.6051   3.6051
     4.9003   4.9003   6.2722   6.2722   6.3340   6.3340   7.3857   7.3857
    11.3162  11.3162  11.4700  11.4700  11.5352  11.5352  13.3727  13.3727
    13.5406  13.5407  13.8397

          k = 0.0000-0.5000-0.5000 ( 15436 PWs)   bands (ev):

   -15.8898 -15.8898 -15.8898 -15.8898 -15.8810 -15.8810 -15.8810 -15.8810
   -15.8131 -15.8131 -15.8131 -15.8131 -15.7824 -15.7824 -15.7824 -15.7824
   -15.7579 -15.7579 -15.7579 -15.7579 -15.6936 -15.6936 -15.6936 -15.6936
   -15.6741 -15.6741 -15.6740 -15.6740 -15.6672 -15.6672 -15.6672 -15.6672
   -15.5886 -15.5886 -15.5886 -15.5886 -15.5826 -15.5826 -15.5826 -15.5826
    -1.7061  -1.7061  -1.7061  -1.7061   2.5127   2.5127   2.5127   2.5127
     5.3100   5.3100   5.3100   5.3100   7.4685   7.4685   7.4685   7.4686
    10.7700  10.7700  10.7700  10.7700  13.6428  13.6428  13.6429  13.6429
    13.9563  13.9564  13.9570

          k = 0.2525 0.0000 0.0000 ( 15439 PWs)   bands (ev):

   -15.8904 -15.8904 -15.8904 -15.8904 -15.8775 -15.8775 -15.8594 -15.8566
   -15.8566 -15.8383 -15.8139 -15.8009 -15.7906 -15.7906 -15.7906 -15.7906
   -15.7583 -15.7583 -15.7219 -15.7219 -15.7219 -15.7219 -15.7155 -15.6823
   -15.6817 -15.6817 -15.6817 -15.6817 -15.6623 -15.6345 -15.6302 -15.6261
   -15.6261 -15.6102 -15.5930 -15.5930 -15.5781 -15.5781 -15.5781 -15.5781
    -3.2545  -1.3364   0.2473   0.2473   0.2473   0.2473   2.1442   5.5965
     5.5965   5.5965   5.5965   6.2349   6.2349   6.4713   8.0963   8.0963
     9.5170  10.5086  10.8116  10.9299  10.9299  10.9299  10.9299  10.9571
    12.6237  12.6237  16.3999

          k = 0.2525 0.0000 0.2500 ( 15435 PWs)   bands (ev):

   -15.8980 -15.8867 -15.8865 -15.8850 -15.8847 -15.8846 -15.8701 -15.8626
   -15.8465 -15.8215 -15.8187 -15.8051 -15.8049 -15.7944 -15.7595 -15.7593
   -15.7533 -15.7487 -15.7450 -15.7308 -15.7252 -15.7218 -15.7164 -15.7141
   -15.6848 -15.6840 -15.6685 -15.6631 -15.6548 -15.6524 -15.6512 -15.6269
   -15.6178 -15.6009 -15.5856 -15.5855 -15.5839 -15.5835 -15.5832 -15.5715
    -3.0180  -1.2038  -1.1789  -0.2490   0.7773   1.8938   1.9295   4.8359
     5.2849   5.5882   5.6232   6.1919   6.2160   6.4660   7.2844   8.5981
    10.1543  10.4827  10.7589  10.8806  11.3975  11.4773  12.0073  12.1452
    12.9837  13.5969  14.4021

          k = 0.2525 0.0000-0.5000 ( 15426 PWs)   bands (ev):

   -15.8960 -15.8960 -15.8874 -15.8874 -15.8790 -15.8790 -15.8755 -15.8755
   -15.8379 -15.8379 -15.7978 -15.7978 -15.7895 -15.7895 -15.7629 -15.7629
   -15.7544 -15.7544 -15.7334 -15.7334 -15.7264 -15.7264 -15.7027 -15.7027
   -15.7013 -15.7013 -15.6741 -15.6741 -15.6569 -15.6569 -15.6374 -15.6374
   -15.5998 -15.5998 -15.5921 -15.5921 -15.5819 -15.5819 -15.5743 -15.5743
    -2.3207  -2.3207  -0.7643  -0.7643   1.3876   1.3876   3.5937   3.5937
     4.8612   4.8612   6.2328   6.2328   6.3879   6.3879   7.4246   7.4246
    11.3344  11.3344  11.5338  11.5338  11.5915  11.5915  13.2709  13.2709
    13.6047  13.6047  13.7701

          k = 0.2525 0.0000-0.2500 ( 15435 PWs)   bands (ev):

   -15.8980 -15.8867 -15.8865 -15.8850 -15.8847 -15.8846 -15.8701 -15.8626
   -15.8465 -15.8215 -15.8187 -15.8051 -15.8049 -15.7944 -15.7595 -15.7593
   -15.7533 -15.7487 -15.7450 -15.7308 -15.7252 -15.7218 -15.7164 -15.7141
   -15.6848 -15.6840 -15.6685 -15.6631 -15.6548 -15.6524 -15.6512 -15.6269
   -15.6178 -15.6009 -15.5856 -15.5855 -15.5839 -15.5835 -15.5832 -15.5715
    -3.0180  -1.2038  -1.1789  -0.2490   0.7773   1.8938   1.9295   4.8359
     5.2849   5.5882   5.6232   6.1919   6.2160   6.4660   7.2844   8.5981
    10.1543  10.4827  10.7589  10.8806  11.3975  11.4773  12.0073  12.1452
    12.9837  13.5969  14.4019

          k = 0.2525 0.2500 0.0000 ( 15435 PWs)   bands (ev):

   -15.8980 -15.8867 -15.8865 -15.8850 -15.8847 -15.8846 -15.8701 -15.8626
   -15.8465 -15.8215 -15.8187 -15.8051 -15.8049 -15.7944 -15.7595 -15.7593
   -15.7533 -15.7487 -15.7450 -15.7308 -15.7252 -15.7218 -15.7164 -15.7141
   -15.6848 -15.6840 -15.6685 -15.6631 -15.6548 -15.6524 -15.6512 -15.6269
   -15.6178 -15.6009 -15.5856 -15.5855 -15.5839 -15.5835 -15.5832 -15.5715
    -3.0180  -1.2038  -1.1789  -0.2490   0.7773   1.8938   1.9295   4.8359
     5.2849   5.5882   5.6232   6.1919   6.2160   6.4660   7.2844   8.5981
    10.1543  10.4827  10.7589  10.8806  11.3975  11.4773  12.0073  12.1452
    12.9837  13.5969  14.4019

          k = 0.2525 0.2500 0.2500 ( 15424 PWs)   bands (ev):

   -15.8932 -15.8932 -15.8928 -15.8806 -15.8806 -15.8784 -15.8696 -15.8677
   -15.8446 -15.8195 -15.8195 -15.8171 -15.7962 -15.7957 -15.7605 -15.7605
   -15.7604 -15.7438 -15.7418 -15.7418 -15.7262 -15.7262 -15.7241 -15.6850
   -15.6850 -15.6840 -15.6581 -15.6578 -15.6570 -15.6545 -15.6545 -15.6411
   -15.6046 -15.6030 -15.5917 -15.5893 -15.5893 -15.5778 -15.5773 -15.5773
    -2.7909  -1.1214  -1.1214  -1.1024   1.6730   1.6730   1.6903   4.2768
     5.3935   5.3935   5.4119   6.6198   6.6860   6.6860   8.0747   8.1433
     9.4728  10.3136  10.3832  10.3832  12.5166  12.5234  12.9625  13.0497
    13.0497  14.2732  14.3347

          k = 0.2525 0.2500-0.5000 ( 15426 PWs)   bands (ev):

   -15.8934 -15.8934 -15.8822 -15.8822 -15.8810 -15.8810 -15.8723 -15.8723
   -15.8368 -15.8368 -15.8086 -15.8086 -15.7874 -15.7874 -15.7711 -15.7711
   -15.7660 -15.7660 -15.7547 -15.7547 -15.7034 -15.7034 -15.6910 -15.6910
   -15.6867 -15.6867 -15.6677 -15.6677 -15.6600 -15.6600 -15.6414 -15.6414
   -15.6010 -15.6010 -15.5907 -15.5907 -15.5878 -15.5878 -15.5773 -15.5773
    -2.1302  -2.1301  -1.0224  -1.0224   1.4516   1.4516   2.9104   2.9104
     5.3958   5.3958   6.7483   6.7483   6.8184   6.8184   7.3030   7.3030
    10.4643  10.4643  11.1745  11.1745  12.1850  12.1850  12.3310  12.3310
    13.6149  13.6149  14.5956

          k = 0.2525 0.2500-0.2500 ( 15424 PWs)   bands (ev):

   -15.8932 -15.8932 -15.8928 -15.8806 -15.8806 -15.8784 -15.8696 -15.8677
   -15.8446 -15.8195 -15.8195 -15.8171 -15.7962 -15.7957 -15.7605 -15.7605
   -15.7604 -15.7438 -15.7418 -15.7418 -15.7262 -15.7262 -15.7241 -15.6850
   -15.6850 -15.6840 -15.6581 -15.6578 -15.6570 -15.6545 -15.6545 -15.6411
   -15.6046 -15.6030 -15.5917 -15.5893 -15.5893 -15.5778 -15.5773 -15.5773
    -2.7909  -1.1214  -1.1214  -1.1024   1.6730   1.6730   1.6903   4.2768
     5.3935   5.3935   5.4119   6.6198   6.6860   6.6860   8.0747   8.1433
     9.4728  10.3136  10.3832  10.3832  12.5166  12.5234  12.9625  13.0497
    13.0497  14.2729  14.2737

          k = 0.2525-0.5000 0.0000 ( 15426 PWs)   bands (ev):

   -15.8960 -15.8960 -15.8874 -15.8874 -15.8790 -15.8790 -15.8755 -15.8755
   -15.8379 -15.8379 -15.7978 -15.7978 -15.7895 -15.7895 -15.7629 -15.7629
   -15.7544 -15.7544 -15.7334 -15.7334 -15.7264 -15.7264 -15.7027 -15.7027
   -15.7013 -15.7013 -15.6741 -15.6741 -15.6569 -15.6569 -15.6374 -15.6374
   -15.5998 -15.5998 -15.5921 -15.5921 -15.5819 -15.5819 -15.5743 -15.5743
    -2.3207  -2.3207  -0.7643  -0.7643   1.3876   1.3876   3.5937   3.5937
     4.8612   4.8612   6.2328   6.2328   6.3879   6.3879   7.4246   7.4246
    11.3344  11.3344  11.5338  11.5338  11.5915  11.5915  13.2709  13.2709
    13.6047  13.6048  13.7701

          k = 0.2525-0.5000 0.2500 ( 15426 PWs)   bands (ev):

   -15.8934 -15.8934 -15.8822 -15.8822 -15.8810 -15.8810 -15.8723 -15.8723
   -15.8368 -15.8368 -15.8086 -15.8086 -15.7874 -15.7874 -15.7711 -15.7711
   -15.7660 -15.7660 -15.7547 -15.7547 -15.7034 -15.7034 -15.6910 -15.6910
   -15.6867 -15.6867 -15.6677 -15.6677 -15.6600 -15.6600 -15.6414 -15.6414
   -15.6010 -15.6010 -15.5907 -15.5907 -15.5878 -15.5878 -15.5773 -15.5773
    -2.1302  -2.1301  -1.0224  -1.0224   1.4516   1.4516   2.9104   2.9104
     5.3958   5.3958   6.7483   6.7483   6.8184   6.8184   7.3030   7.3030
    10.4643  10.4643  11.1745  11.1745  12.1850  12.1850  12.3310  12.3310
    13.6149  13.6149  14.5955

          k = 0.2525-0.5000-0.5000 ( 15372 PWs)   bands (ev):

   -15.8840 -15.8840 -15.8840 -15.8840 -15.8773 -15.8773 -15.8773 -15.8773
   -15.8237 -15.8237 -15.8237 -15.8237 -15.7833 -15.7833 -15.7833 -15.7833
   -15.7721 -15.7721 -15.7721 -15.7721 -15.6786 -15.6786 -15.6786 -15.6786
   -15.6673 -15.6673 -15.6673 -15.6673 -15.6626 -15.6626 -15.6626 -15.6626
   -15.5931 -15.5931 -15.5931 -15.5931 -15.5883 -15.5883 -15.5883 -15.5883
    -1.6178  -1.6178  -1.6178  -1.6178   1.9648   1.9648   1.9649   1.9649
     6.3000   6.3000   6.3000   6.3000   7.5156   7.5156   7.5156   7.5156
    10.2109  10.2109  10.2109  10.2109  12.7168  12.7168  12.7168  12.7168
    13.0519  13.0519  13.0519

          k = 0.2525-0.5000-0.2500 ( 15426 PWs)   bands (ev):

   -15.8934 -15.8934 -15.8822 -15.8822 -15.8810 -15.8810 -15.8723 -15.8723
   -15.8368 -15.8368 -15.8086 -15.8086 -15.7874 -15.7874 -15.7711 -15.7711
   -15.7660 -15.7660 -15.7547 -15.7547 -15.7034 -15.7034 -15.6910 -15.6910
   -15.6867 -15.6867 -15.6677 -15.6677 -15.6600 -15.6600 -15.6414 -15.6414
   -15.6010 -15.6010 -15.5907 -15.5907 -15.5878 -15.5878 -15.5773 -15.5773
    -2.1302  -2.1301  -1.0224  -1.0224   1.4516   1.4516   2.9104   2.9104
     5.3958   5.3958   6.7483   6.7483   6.8184   6.8184   7.3030   7.3030
    10.4643  10.4643  11.1745  11.1745  12.1850  12.1850  12.3310  12.3310
    13.6149  13.6150  14.5955

          k = 0.2525-0.2500 0.0000 ( 15435 PWs)   bands (ev):

   -15.8980 -15.8867 -15.8865 -15.8850 -15.8847 -15.8846 -15.8701 -15.8626
   -15.8465 -15.8215 -15.8187 -15.8051 -15.8049 -15.7944 -15.7595 -15.7593
   -15.7533 -15.7487 -15.7450 -15.7308 -15.7252 -15.7218 -15.7164 -15.7141
   -15.6848 -15.6840 -15.6685 -15.6631 -15.6548 -15.6524 -15.6512 -15.6269
   -15.6178 -15.6009 -15.5856 -15.5855 -15.5839 -15.5835 -15.5832 -15.5715
    -3.0180  -1.2038  -1.1789  -0.2490   0.7773   1.8938   1.9295   4.8359
     5.2849   5.5882   5.6232   6.1919   6.2160   6.4660   7.2844   8.5981
    10.1543  10.4827  10.7589  10.8806  11.3975  11.4773  12.0073  12.1452
    12.9837  13.5969  14.4020

          k = 0.2525-0.2500 0.2500 ( 15424 PWs)   bands (ev):

   -15.8932 -15.8932 -15.8928 -15.8806 -15.8806 -15.8784 -15.8696 -15.8677
   -15.8446 -15.8195 -15.8195 -15.8171 -15.7962 -15.7957 -15.7605 -15.7605
   -15.7604 -15.7438 -15.7418 -15.7418 -15.7262 -15.7262 -15.7241 -15.6850
   -15.6850 -15.6840 -15.6581 -15.6578 -15.6570 -15.6545 -15.6545 -15.6411
   -15.6046 -15.6030 -15.5917 -15.5893 -15.5893 -15.5778 -15.5773 -15.5773
    -2.7909  -1.1214  -1.1214  -1.1024   1.6730   1.6730   1.6903   4.2768
     5.3935   5.3935   5.4119   6.6198   6.6860   6.6860   8.0747   8.1433
     9.4728  10.3136  10.3832  10.3832  12.5166  12.5234  12.9625  13.0497
    13.0497  14.2729  14.3344

          k = 0.2525-0.2500-0.5000 ( 15426 PWs)   bands (ev):

   -15.8934 -15.8934 -15.8822 -15.8822 -15.8810 -15.8810 -15.8723 -15.8723
   -15.8368 -15.8368 -15.8086 -15.8086 -15.7874 -15.7874 -15.7711 -15.7711
   -15.7660 -15.7660 -15.7547 -15.7547 -15.7034 -15.7034 -15.6910 -15.6910
   -15.6867 -15.6867 -15.6677 -15.6677 -15.6600 -15.6600 -15.6414 -15.6414
   -15.6010 -15.6010 -15.5907 -15.5907 -15.5878 -15.5878 -15.5773 -15.5773
    -2.1302  -2.1301  -1.0224  -1.0224   1.4516   1.4516   2.9104   2.9104
     5.3958   5.3958   6.7483   6.7483   6.8184   6.8184   7.3030   7.3030
    10.4643  10.4643  11.1745  11.1745  12.1850  12.1850  12.3310  12.3310
    13.6149  13.6149  14.4915

          k = 0.2525-0.2500-0.2500 ( 15424 PWs)   bands (ev):

   -15.8932 -15.8932 -15.8928 -15.8806 -15.8806 -15.8784 -15.8696 -15.8677
   -15.8446 -15.8195 -15.8195 -15.8171 -15.7962 -15.7957 -15.7605 -15.7605
   -15.7604 -15.7438 -15.7418 -15.7418 -15.7262 -15.7262 -15.7241 -15.6850
   -15.6850 -15.6840 -15.6581 -15.6578 -15.6570 -15.6545 -15.6545 -15.6411
   -15.6046 -15.6030 -15.5917 -15.5893 -15.5893 -15.5778 -15.5773 -15.5773
    -2.7909  -1.1214  -1.1214  -1.1024   1.6730   1.6730   1.6903   4.2768
     5.3935   5.3935   5.4119   6.6198   6.6860   6.6860   8.0747   8.1433
     9.4728  10.3136  10.3832  10.3832  12.5166  12.5234  12.9625  13.0497
    13.0497  14.2727  14.3349

          k =-0.5051 0.0000 0.0000 ( 15446 PWs)   bands (ev):

   -15.8957 -15.8957 -15.8957 -15.8957 -15.8676 -15.8676 -15.8676 -15.8676
   -15.8570 -15.8570 -15.7914 -15.7914 -15.7711 -15.7711 -15.7711 -15.7711
   -15.7614 -15.7614 -15.7262 -15.7262 -15.7262 -15.7262 -15.7083 -15.7083
   -15.6963 -15.6963 -15.6963 -15.6963 -15.6509 -15.6509 -15.6129 -15.6129
   -15.6090 -15.6090 -15.6090 -15.6090 -15.5734 -15.5734 -15.5734 -15.5734
    -2.5231  -2.5231   0.2928   0.2928   0.2928   0.2928   4.2450   4.2450
     5.2459   5.2459   5.2459   5.2459   6.9801   6.9801   6.9801   6.9801
     9.9406   9.9406  11.5850  11.5850  13.1783  13.1783  13.1783  13.1785
    13.7024  13.7024  13.7025

          k =-0.5051 0.0000 0.2500 ( 15448 PWs)   bands (ev):

   -15.8967 -15.8967 -15.8883 -15.8883 -15.8776 -15.8776 -15.8748 -15.8748
   -15.8362 -15.8362 -15.7998 -15.7998 -15.7895 -15.7895 -15.7651 -15.7651
   -15.7549 -15.7549 -15.7308 -15.7308 -15.7307 -15.7307 -15.6995 -15.6995
   -15.6987 -15.6987 -15.6725 -15.6725 -15.6564 -15.6564 -15.6403 -15.6403
   -15.6006 -15.6006 -15.5937 -15.5937 -15.5808 -15.5808 -15.5735 -15.5735
    -2.3101  -2.3101  -0.7765  -0.7765   1.3768   1.3768   3.6152   3.6152
     4.8700   4.8700   6.2110   6.2110   6.3681   6.3681   7.4137   7.4137
    11.2232  11.2232  11.5483  11.5483  11.6057  11.6057  13.4363  13.4363
    13.5885  13.8841  13.8864

          k =-0.5051 0.0000-0.5000 ( 15424 PWs)   bands (ev):

   -15.8882 -15.8882 -15.8882 -15.8882 -15.8827 -15.8827 -15.8827 -15.8827
   -15.8133 -15.8133 -15.8133 -15.8133 -15.7816 -15.7816 -15.7816 -15.7815
   -15.7579 -15.7579 -15.7579 -15.7579 -15.6946 -15.6946 -15.6946 -15.6945
   -15.6753 -15.6753 -15.6753 -15.6753 -15.6653 -15.6653 -15.6653 -15.6653
   -15.5868 -15.5868 -15.5868 -15.5868 -15.5845 -15.5845 -15.5845 -15.5845
    -1.6976  -1.6976  -1.6976  -1.6976   2.4902   2.4902   2.4902   2.4902
     5.2606   5.2606   5.2606   5.2606   7.5388   7.5388   7.5388   7.5388
    10.8413  10.8413  10.8413  10.8413  13.6143  13.6143  13.6143  13.6143
    13.9052  13.9052  13.9054

          k =-0.5051 0.2500 0.0000 ( 15448 PWs)   bands (ev):

   -15.8967 -15.8967 -15.8883 -15.8883 -15.8776 -15.8776 -15.8748 -15.8748
   -15.8362 -15.8362 -15.7998 -15.7998 -15.7895 -15.7895 -15.7651 -15.7651
   -15.7549 -15.7549 -15.7308 -15.7308 -15.7307 -15.7307 -15.6995 -15.6995
   -15.6987 -15.6987 -15.6725 -15.6725 -15.6564 -15.6564 -15.6403 -15.6403
   -15.6006 -15.6006 -15.5937 -15.5937 -15.5808 -15.5808 -15.5735 -15.5735
    -2.3101  -2.3101  -0.7765  -0.7765   1.3768   1.3768   3.6152   3.6152
     4.8700   4.8700   6.2110   6.2110   6.3681   6.3681   7.4137   7.4137
    11.2232  11.2232  11.5483  11.5483  11.6057  11.6057  13.4363  13.4363
    13.5885  13.5886  13.8864

          k =-0.5051 0.2500 0.2500 ( 15422 PWs)   bands (ev):

   -15.8929 -15.8929 -15.8840 -15.8840 -15.8812 -15.8812 -15.8705 -15.8705
   -15.8355 -15.8355 -15.8104 -15.8104 -15.7876 -15.7876 -15.7728 -15.7728
   -15.7660 -15.7660 -15.7525 -15.7525 -15.7074 -15.7074 -15.6885 -15.6885
   -15.6856 -15.6855 -15.6655 -15.6655 -15.6588 -15.6588 -15.6443 -15.6443
   -15.6031 -15.6031 -15.5905 -15.5905 -15.5858 -15.5858 -15.5778 -15.5778
    -2.1208  -2.1208  -1.0274  -1.0274   1.4403   1.4403   2.9116   2.9116
     5.3700   5.3700   6.7685   6.7685   6.8550   6.8550   7.2442   7.2442
    10.4394  10.4394  11.2676  11.2676  12.1909  12.1909  12.3940  12.3940
    13.5820  13.5820  14.5365

          k =-0.5051 0.2500-0.5000 ( 15404 PWs)   bands (ev):

   -15.8825 -15.8825 -15.8825 -15.8825 -15.8790 -15.8790 -15.8790 -15.8790
   -15.8237 -15.8237 -15.8237 -15.8237 -15.7831 -15.7831 -15.7831 -15.7831
   -15.7721 -15.7721 -15.7721 -15.7721 -15.6797 -15.6797 -15.6797 -15.6797
   -15.6667 -15.6667 -15.6667 -15.6667 -15.6622 -15.6622 -15.6622 -15.6622
   -15.5916 -15.5916 -15.5916 -15.5916 -15.5898 -15.5898 -15.5898 -15.5898
    -1.6130  -1.6130  -1.6130  -1.6130   1.9545   1.9545   1.9545   1.9545
     6.2438   6.2438   6.2438   6.2438   7.5834   7.5834   7.5834   7.5834
    10.2401  10.2401  10.2401  10.2401  12.6833  12.6833  12.6833  12.6833
    13.0777  13.0777  13.0777

          k =-0.5051 0.2500-0.2500 ( 15422 PWs)   bands (ev):

   -15.8929 -15.8929 -15.8840 -15.8840 -15.8812 -15.8812 -15.8705 -15.8705
   -15.8355 -15.8355 -15.8104 -15.8104 -15.7876 -15.7876 -15.7728 -15.7728
   -15.7660 -15.7660 -15.7525 -15.7525 -15.7074 -15.7074 -15.6885 -15.6885
   -15.6855 -15.6855 -15.6655 -15.6655 -15.6588 -15.6588 -15.6443 -15.6443
   -15.6031 -15.6031 -15.5905 -15.5905 -15.5858 -15.5858 -15.5778 -15.5778
    -2.1208  -2.1208  -1.0274  -1.0274   1.4403   1.4403   2.9116   2.9116
     5.3700   5.3700   6.7685   6.7685   6.8550   6.8550   7.2442   7.2442
    10.4394  10.4394  11.2676  11.2676  12.1909  12.1909  12.3940  12.3940
    13.5820  13.5820  14.5365

          k =-0.5051-0.5000 0.0000 ( 15424 PWs)   bands (ev):

   -15.8882 -15.8882 -15.8882 -15.8882 -15.8827 -15.8827 -15.8827 -15.8827
   -15.8133 -15.8133 -15.8133 -15.8133 -15.7816 -15.7816 -15.7816 -15.7815
   -15.7579 -15.7579 -15.7579 -15.7579 -15.6946 -15.6946 -15.6946 -15.6945
   -15.6753 -15.6753 -15.6753 -15.6753 -15.6653 -15.6653 -15.6653 -15.6653
   -15.5868 -15.5868 -15.5868 -15.5868 -15.5845 -15.5845 -15.5845 -15.5845
    -1.6976  -1.6976  -1.6976  -1.6976   2.4902   2.4902   2.4902   2.4902
     5.2606   5.2606   5.2606   5.2606   7.5388   7.5388   7.5388   7.5388
    10.8413  10.8413  10.8413  10.8413  13.6143  13.6143  13.6143  13.6144
    13.9052  13.9054  13.9059

          k =-0.5051-0.5000 0.2500 ( 15404 PWs)   bands (ev):

   -15.8825 -15.8825 -15.8825 -15.8825 -15.8790 -15.8790 -15.8790 -15.8790
   -15.8237 -15.8237 -15.8237 -15.8237 -15.7831 -15.7831 -15.7831 -15.7831
   -15.7721 -15.7721 -15.7721 -15.7721 -15.6797 -15.6797 -15.6797 -15.6797
   -15.6667 -15.6667 -15.6667 -15.6667 -15.6622 -15.6622 -15.6622 -15.6622
   -15.5916 -15.5916 -15.5916 -15.5916 -15.5898 -15.5898 -15.5898 -15.5898
    -1.6130  -1.6130  -1.6130  -1.6130   1.9545   1.9545   1.9545   1.9545
     6.2438   6.2438   6.2438   6.2438   7.5834   7.5834   7.5834   7.5834
    10.2401  10.2401  10.2401  10.2401  12.6833  12.6833  12.6833  12.6833
    13.0777  13.0777  13.0777

          k =-0.5051-0.5000-0.5000 ( 15328 PWs)   bands (ev):

   -15.8757 -15.8757 -15.8757 -15.8757 -15.8731 -15.8731 -15.8731 -15.8731
   -15.8365 -15.8365 -15.8365 -15.8365 -15.7840 -15.7840 -15.7840 -15.7840
   -15.7838 -15.7838 -15.7838 -15.7838 -15.6671 -15.6671 -15.6671 -15.6671
   -15.6654 -15.6654 -15.6654 -15.6654 -15.6504 -15.6504 -15.6504 -15.6504
   -15.5986 -15.5986 -15.5986 -15.5986 -15.5956 -15.5956 -15.5956 -15.5956
    -1.5176  -1.5176  -1.5176  -1.5176   1.5414   1.5414   1.5414   1.5414
     7.5651   7.5651   7.5651   7.5651   7.6508   7.6508   7.6508   7.6508
     8.9965   8.9965   8.9965   8.9965  12.6346  12.6346  12.6346  12.6352
    12.6935  12.6935  12.6935

     the Fermi energy is     8.9174 ev

!    total energy              =   -1429.13866738 Ry
     estimated scf accuracy    <          2.4E-09 Ry
     smearing contrib. (-TS)   =      -0.00049445 Ry
     internal energy E=F+TS    =   -1429.13817293 Ry

     The total energy is F=E-TS. E is the sum of the following terms:
     one-electron contribution =    -751.27571959 Ry
     hartree contribution      =     449.84561841 Ry
     xc contribution           =    -349.10333342 Ry
     ewald contribution        =    -778.60473831 Ry

     convergence has been achieved in   9 iterations

     Forces acting on atoms (cartesian axes, Ry/au):

     atom    1 type  1   force =     0.00000014   -0.00000007    0.00000015
     atom    2 type  1   force =     0.00000008   -0.00000006    0.00000026
     atom    3 type  1   force =     0.00000028    0.00000001   -0.00000042
     atom    4 type  1   force =     0.00000002   -0.00000012   -0.00000019
     atom    5 type  1   force =    -0.00000011    0.00000008    0.00000003
     atom    6 type  1   force =    -0.00000021    0.00000012    0.00000002
     atom    7 type  1   force =    -0.00000029   -0.00000021    0.00000007
     atom    8 type  1   force =     0.00000009    0.00000027    0.00000006

     Total force =     0.000001     Total SCF correction =     0.000017
     SCF correction compared to forces is large: reduce conv_thr to get better values


     Computing stress (Cartesian axis) and pressure

          total   stress  (Ry/bohr**3)                   (kbar)     P=        8.63
   0.00008712   0.00000000   0.00000000           12.82        0.00        0.00
   0.00000000   0.00004441   0.00000000            0.00        6.53        0.00
   0.00000000   0.00000000   0.00004441            0.00        0.00        6.53


     Writing output data file ./Ge_out/Ge_scf.save/
 
     init_run     :      1.04s CPU      1.42s WALL (       1 calls)
     electrons    :     30.31s CPU     39.47s WALL (       1 calls)
     forces       :      0.31s CPU      0.50s WALL (       1 calls)
     stress       :      1.03s CPU      1.62s WALL (       1 calls)

     Called by init_run:
     wfcinit      :      0.99s CPU      1.31s WALL (       1 calls)
     potinit      :      0.01s CPU      0.02s WALL (       1 calls)
     hinit0       :      0.02s CPU      0.05s WALL (       1 calls)

     Called by electrons:
     c_bands      :     26.95s CPU     35.79s WALL (      10 calls)
     sum_band     :      3.31s CPU      3.59s WALL (      10 calls)
     v_of_rho     :      0.05s CPU      0.06s WALL (      10 calls)
     mix_rho      :      0.01s CPU      0.01s WALL (      10 calls)

     Called by c_bands:
     init_us_2    :      0.24s CPU      0.28s WALL (     828 calls)
     cegterg      :     25.86s CPU     34.65s WALL (     360 calls)

     Called by *egterg:
     cdiaghg      :      5.39s CPU     11.30s WALL (    1498 calls)
     h_psi        :     17.41s CPU     19.45s WALL (    1570 calls)
     g_psi        :      0.05s CPU      0.05s WALL (    1174 calls)

     Called by h_psi:
     h_psi:calbec :      0.92s CPU      1.13s WALL (    1570 calls)
     vloc_psi     :     15.89s CPU     17.66s WALL (    1570 calls)
     add_vuspsi   :      0.52s CPU      0.57s WALL (    1570 calls)

     General routines
     calbec       :      1.30s CPU      2.26s WALL (    1750 calls)
     fft          :      0.04s CPU      0.08s WALL (     125 calls)
     ffts         :      0.00s CPU      0.00s WALL (      10 calls)
     fftw         :     17.53s CPU     19.41s WALL (  150968 calls)
 
     Parallel routines
 
     PWSCF        :     33.63s CPU     44.90s WALL

 
   This run was terminated on:  21:11: 1   7May2025            

=------------------------------------------------------------------------------=
   JOB DONE.
=------------------------------------------------------------------------------=
