
     Program PWSCF v.6.8 starts on  7May2025 at 21:11: 2 

     This program is part of the open-source Quantum ESPRESSO suite
     for quantum simulation of materials; please cite
         "P. Giannozzi et al., J. Phys.:Condens. Matter 21 395502 (2009);
         "P. Giannozzi et al., J. Phys.:Condens. Matter 29 465901 (2017);
         "P. Giannozzi et al., J. Chem. Phys. 152 154105 (2020);
          URL http://www.quantum-espresso.org", 
     in publications or presentations arising from this work. More details at
     http://www.quantum-espresso.org/quote

     Parallel version (MPI & OpenMP), running on      56 processor cores
     Number of MPI processes:                56
     Threads/MPI process:                     1

     MPI processes distributed on     1 nodes
     R & G space division:  proc/nbgrp/npool/nimage =      56
     186141 MiB available memory on the printing compute node when the environment starts
 
     Reading input from plus_e.in

     Current dimensions of program PWSCF are:
     Max number of different atomic species (ntypx) = 10
     Max number of k-points (npk) =  40000
     Max angular momentum in pseudopotentials (lmaxx) =  4
     Found symmetry operation: I + ( -0.5000 -0.5000  0.0000)
     This is a supercell, fractional translations are disabled

     Subspace diagonalization in iterative solution of the eigenvalue problem:
     one sub-group per band group will be used
     scalapack distributed-memory algorithm (size of sub-group:  7*  7 procs)

 
     Parallelization info
     --------------------
     sticks:   dense  smooth     PW     G-vecs:    dense   smooth      PW
     Min          54      54     15                 2244     2244     329
     Max          56      56     16                 2247     2247     334
     Sum        3043    3043    857               125699   125699   18533
 
     Using Slab Decomposition
 


     bravais-lattice index     =            0
     lattice parameter (alat)  =      10.8848  a.u.
     unit-cell volume          =    1302.5231 (a.u.)^3
     number of atoms/cell      =            8
     number of atomic types    =            1
     number of electrons       =       112.00
     number of Kohn-Sham states=           67
     kinetic-energy cutoff     =      80.0000  Ry
     charge density cutoff     =     320.0000  Ry
     scf convergence threshold =      1.0E-08
     mixing beta               =       0.4000
     number of iterations used =            8  plain     mixing
     Exchange-correlation= PBE
                           (   1   4   3   4   0   0   0)

     celldm(1)=  10.884822  celldm(2)=   0.000000  celldm(3)=   0.000000
     celldm(4)=   0.000000  celldm(5)=   0.000000  celldm(6)=   0.000000

     crystal axes: (cart. coord. in units of alat)
               a(1) = (   1.010000   0.000000   0.000000 )  
               a(2) = (   0.000000   1.000000   0.000000 )  
               a(3) = (   0.000000   0.000000   1.000000 )  

     reciprocal axes: (cart. coord. in units 2 pi/alat)
               b(1) = (  0.990099  0.000000  0.000000 )  
               b(2) = (  0.000000  1.000000  0.000000 )  
               b(3) = (  0.000000  0.000000  1.000000 )  


     PseudoPot. # 1 for Ge read from file:
     ./Ge.upf
     MD5 check sum: 087fa14d6c89b52166990835c3b338da
     Pseudo is Norm-conserving + core correction, Zval = 14.0
     Generated using ONCVPSP code by D. R. Hamann
     Using radial grid of 1560 points,  6 beta functions with: 
                l(1) =   0
                l(2) =   0
                l(3) =   1
                l(4) =   1
                l(5) =   2
                l(6) =   2

     atomic species   valence    mass     pseudopotential
        Ge            14.00    72.63000     Ge( 1.00)

     No symmetry found



   Cartesian axes

     site n.     atom                  positions (alat units)
         1           Ge  tau(   1) = (   0.0000000   0.0000000   0.0000000  )
         2           Ge  tau(   2) = (   0.5050000   0.5000000   0.0000000  )
         3           Ge  tau(   3) = (   0.5050000   0.0000000   0.5000000  )
         4           Ge  tau(   4) = (   0.0000000   0.5000000   0.5000000  )
         5           Ge  tau(   5) = (   0.2525000   0.2500000   0.2500000  )
         6           Ge  tau(   6) = (   0.7575000   0.7500000   0.2500000  )
         7           Ge  tau(   7) = (   0.7575000   0.2500000   0.7500000  )
         8           Ge  tau(   8) = (   0.2525000   0.7500000   0.7500000  )

     number of k points=    36  Gaussian smearing, width (Ry)=  0.0100
                       cart. coord. in units 2pi/alat
        k(    1) = (   0.0000000   0.0000000   0.0000000), wk =   0.0312500
        k(    2) = (   0.0000000   0.0000000   0.2500000), wk =   0.0625000
        k(    3) = (   0.0000000   0.0000000  -0.5000000), wk =   0.0312500
        k(    4) = (   0.0000000   0.2500000   0.0000000), wk =   0.0625000
        k(    5) = (   0.0000000   0.2500000   0.2500000), wk =   0.0625000
        k(    6) = (   0.0000000   0.2500000  -0.5000000), wk =   0.0625000
        k(    7) = (   0.0000000   0.2500000  -0.2500000), wk =   0.0625000
        k(    8) = (   0.0000000  -0.5000000   0.0000000), wk =   0.0312500
        k(    9) = (   0.0000000  -0.5000000   0.2500000), wk =   0.0625000
        k(   10) = (   0.0000000  -0.5000000  -0.5000000), wk =   0.0312500
        k(   11) = (   0.2475248   0.0000000   0.0000000), wk =   0.0625000
        k(   12) = (   0.2475248   0.0000000   0.2500000), wk =   0.0625000
        k(   13) = (   0.2475248   0.0000000  -0.5000000), wk =   0.0625000
        k(   14) = (   0.2475248   0.0000000  -0.2500000), wk =   0.0625000
        k(   15) = (   0.2475248   0.2500000   0.0000000), wk =   0.0625000
        k(   16) = (   0.2475248   0.2500000   0.2500000), wk =   0.0625000
        k(   17) = (   0.2475248   0.2500000  -0.5000000), wk =   0.0625000
        k(   18) = (   0.2475248   0.2500000  -0.2500000), wk =   0.0625000
        k(   19) = (   0.2475248  -0.5000000   0.0000000), wk =   0.0625000
        k(   20) = (   0.2475248  -0.5000000   0.2500000), wk =   0.0625000
        k(   21) = (   0.2475248  -0.5000000  -0.5000000), wk =   0.0625000
        k(   22) = (   0.2475248  -0.5000000  -0.2500000), wk =   0.0625000
        k(   23) = (   0.2475248  -0.2500000   0.0000000), wk =   0.0625000
        k(   24) = (   0.2475248  -0.2500000   0.2500000), wk =   0.0625000
        k(   25) = (   0.2475248  -0.2500000  -0.5000000), wk =   0.0625000
        k(   26) = (   0.2475248  -0.2500000  -0.2500000), wk =   0.0625000
        k(   27) = (  -0.4950495   0.0000000   0.0000000), wk =   0.0312500
        k(   28) = (  -0.4950495   0.0000000   0.2500000), wk =   0.0625000
        k(   29) = (  -0.4950495   0.0000000  -0.5000000), wk =   0.0312500
        k(   30) = (  -0.4950495   0.2500000   0.0000000), wk =   0.0625000
        k(   31) = (  -0.4950495   0.2500000   0.2500000), wk =   0.0625000
        k(   32) = (  -0.4950495   0.2500000  -0.5000000), wk =   0.0625000
        k(   33) = (  -0.4950495   0.2500000  -0.2500000), wk =   0.0625000
        k(   34) = (  -0.4950495  -0.5000000   0.0000000), wk =   0.0312500
        k(   35) = (  -0.4950495  -0.5000000   0.2500000), wk =   0.0625000
        k(   36) = (  -0.4950495  -0.5000000  -0.5000000), wk =   0.0312500

     Dense  grid:   125699 G-vectors     FFT dimensions: (  64,  64,  64)

     Estimated max dynamical RAM per process >      15.49 MB

     Estimated total dynamical RAM >     867.52 MB

     Initial potential from superposition of free atoms

     starting charge  111.99342, renormalised to  112.00000
     Starting wfcs are   72 randomized atomic wfcs

     total cpu time spent up to now is        1.4 secs

     Self-consistent Calculation

     iteration #  1     ecut=    80.00 Ry     beta= 0.40
     Davidson diagonalization with overlap
     ethr =  1.00E-02,  avg # of iterations =  3.8

     Threshold (ethr) on eigenvalues was too large:
     Diagonalizing with lowered threshold

     Davidson diagonalization with overlap
     ethr =  9.88E-05,  avg # of iterations =  5.7

     total cpu time spent up to now is       10.8 secs

     total energy              =   -1429.14161902 Ry
     estimated scf accuracy    <       0.12259177 Ry

     iteration #  2     ecut=    80.00 Ry     beta= 0.40
     Davidson diagonalization with overlap
     ethr =  1.09E-04,  avg # of iterations =  1.2

     total cpu time spent up to now is       13.7 secs

     total energy              =   -1429.13706058 Ry
     estimated scf accuracy    <       0.03826547 Ry

     iteration #  3     ecut=    80.00 Ry     beta= 0.40
     Davidson diagonalization with overlap
     ethr =  3.42E-05,  avg # of iterations =  2.1

     total cpu time spent up to now is       16.9 secs

     total energy              =   -1429.13902025 Ry
     estimated scf accuracy    <       0.00043540 Ry

     iteration #  4     ecut=    80.00 Ry     beta= 0.40
     Davidson diagonalization with overlap
     c_bands:  1 eigenvalues not converged
     c_bands:  1 eigenvalues not converged
     ethr =  3.89E-07,  avg # of iterations =  8.7

     total cpu time spent up to now is       23.2 secs

     total energy              =   -1429.13911263 Ry
     estimated scf accuracy    <       0.00005124 Ry

     iteration #  5     ecut=    80.00 Ry     beta= 0.40
     Davidson diagonalization with overlap
     c_bands:  1 eigenvalues not converged
     c_bands:  1 eigenvalues not converged
     ethr =  4.58E-08,  avg # of iterations =  3.0

     total cpu time spent up to now is       26.7 secs

     total energy              =   -1429.13911363 Ry
     estimated scf accuracy    <       0.00000396 Ry

     iteration #  6     ecut=    80.00 Ry     beta= 0.40
     Davidson diagonalization with overlap
     ethr =  3.54E-09,  avg # of iterations =  2.3

     total cpu time spent up to now is       30.8 secs

     total energy              =   -1429.13911525 Ry
     estimated scf accuracy    <       0.00000107 Ry

     iteration #  7     ecut=    80.00 Ry     beta= 0.40
     Davidson diagonalization with overlap
     ethr =  9.54E-10,  avg # of iterations =  1.4

     total cpu time spent up to now is       33.8 secs

     total energy              =   -1429.13911513 Ry
     estimated scf accuracy    <       0.00000025 Ry

     iteration #  8     ecut=    80.00 Ry     beta= 0.40
     Davidson diagonalization with overlap
     ethr =  2.21E-10,  avg # of iterations =  2.3

     total cpu time spent up to now is       38.0 secs

     total energy              =   -1429.13911521 Ry
     estimated scf accuracy    <       0.00000005 Ry

     iteration #  9     ecut=    80.00 Ry     beta= 0.40
     Davidson diagonalization with overlap
     ethr =  4.59E-11,  avg # of iterations =  2.3

     total cpu time spent up to now is       42.0 secs

     End of self-consistent calculation

          k = 0.0000 0.0000 0.0000 ( 15651 PWs)   bands (ev):

   -16.1284 -16.1284 -16.1261 -16.1261 -16.1261 -16.1261 -16.0984 -16.0984
   -16.0963 -16.0685 -16.0676 -16.0548 -16.0548 -16.0522 -16.0522 -16.0522
   -16.0522 -15.9733 -15.9733 -15.9726 -15.9726 -15.9726 -15.9726 -15.9247
   -15.9247 -15.9247 -15.9247 -15.9218 -15.9218 -15.8908 -15.8874 -15.8874
   -15.8830 -15.8808 -15.8445 -15.8445 -15.8445 -15.8445 -15.8418 -15.8418
    -3.6282  -0.0111  -0.0111   0.0322   0.0322   0.0322   0.0322   5.7967
     5.7967   5.7967   5.7967   5.8622   5.8622   8.1377   8.6252   8.6997
     8.6997   9.4757   9.4757   9.4757   9.4757   9.5500   9.5500  11.1831
    11.1831  11.2312  14.9557

          k = 0.0000 0.0000 0.2500 ( 15747 PWs)   bands (ev):

   -16.1342 -16.1342 -16.1327 -16.1327 -16.1228 -16.1219 -16.1040 -16.1031
   -16.1011 -16.0846 -16.0609 -16.0485 -16.0393 -16.0393 -16.0367 -16.0367
   -16.0090 -16.0087 -15.9745 -15.9745 -15.9739 -15.9739 -15.9670 -15.9381
   -15.9381 -15.9371 -15.9351 -15.9351 -15.9180 -15.8905 -15.8881 -15.8836
   -15.8804 -15.8681 -15.8512 -15.8500 -15.8387 -15.8387 -15.8370 -15.8370
    -3.3875  -1.5159   0.0346   0.0346   0.0662   0.0662   1.8860   5.3789
     5.3789   5.4232   5.4232   6.0414   6.0528   6.1302   7.8376   7.8857
     9.3013  10.2547  10.5632  10.5650  10.5903  10.5903  10.6736  10.6736
    12.2639  12.3534  15.9330

          k = 0.0000 0.0000-0.5000 ( 15762 PWs)   bands (ev):

   -16.1384 -16.1384 -16.1384 -16.1384 -16.1136 -16.1136 -16.1120 -16.1120
   -16.1021 -16.1021 -16.0398 -16.0398 -16.0192 -16.0192 -16.0192 -16.0192
   -16.0107 -16.0107 -15.9784 -15.9784 -15.9784 -15.9784 -15.9617 -15.9617
   -15.9506 -15.9506 -15.9506 -15.9506 -15.9076 -15.9076 -15.8703 -15.8703
   -15.8669 -15.8669 -15.8646 -15.8646 -15.8334 -15.8334 -15.8334 -15.8334
    -2.6740  -2.6740   0.0920   0.0920   0.0920   0.0920   3.9455   3.9455
     5.0657   5.0657   5.0657   5.0657   6.7609   6.7609   6.7867   6.7867
     9.7153   9.7153  11.2513  11.2513  12.7808  12.7808  12.7808  12.7808
    13.3846  13.3846  13.3846

          k = 0.0000 0.2500 0.0000 ( 15747 PWs)   bands (ev):

   -16.1342 -16.1342 -16.1327 -16.1327 -16.1228 -16.1219 -16.1040 -16.1031
   -16.1011 -16.0846 -16.0609 -16.0485 -16.0393 -16.0393 -16.0367 -16.0367
   -16.0090 -16.0087 -15.9745 -15.9745 -15.9739 -15.9739 -15.9670 -15.9381
   -15.9381 -15.9371 -15.9351 -15.9351 -15.9180 -15.8905 -15.8881 -15.8836
   -15.8804 -15.8681 -15.8512 -15.8500 -15.8387 -15.8387 -15.8370 -15.8370
    -3.3875  -1.5159   0.0346   0.0346   0.0662   0.0662   1.8860   5.3789
     5.3789   5.4232   5.4232   6.0414   6.0528   6.1302   7.8376   7.8857
     9.3013  10.2547  10.5632  10.5650  10.5903  10.5903  10.6736  10.6736
    12.2639  12.3534  15.9330

          k = 0.0000 0.2500 0.2500 ( 15764 PWs)   bands (ev):

   -16.1411 -16.1294 -16.1294 -16.1290 -16.1289 -16.1289 -16.1147 -16.1067
   -16.0918 -16.0665 -16.0665 -16.0532 -16.0531 -16.0426 -16.0096 -16.0096
   -16.0045 -15.9970 -15.9970 -15.9828 -15.9759 -15.9759 -15.9676 -15.9671
   -15.9386 -15.9386 -15.9225 -15.9182 -15.9091 -15.9091 -15.9070 -15.8843
   -15.8759 -15.8591 -15.8442 -15.8442 -15.8433 -15.8433 -15.8417 -15.8310
    -3.1534  -1.3612  -1.3612  -0.4510   0.5552   1.6794   1.6794   4.6631
     4.9970   5.3991   5.3991   5.9991   5.9991   6.2743   7.0391   8.3521
     9.9173  10.1321  10.5357  10.5357  11.1359  11.1359  11.7258  11.8019
    12.7087  13.2724  14.1505

          k = 0.0000 0.2500-0.5000 ( 15730 PWs)   bands (ev):

   -16.1392 -16.1392 -16.1318 -16.1318 -16.1225 -16.1225 -16.1187 -16.1187
   -16.0827 -16.0827 -16.0471 -16.0471 -16.0382 -16.0382 -16.0141 -16.0141
   -16.0044 -16.0044 -15.9836 -15.9836 -15.9806 -15.9806 -15.9538 -15.9538
   -15.9538 -15.9538 -15.9273 -15.9273 -15.9120 -15.9120 -15.8957 -15.8957
   -15.8591 -15.8591 -15.8513 -15.8513 -15.8401 -15.8401 -15.8337 -15.8337
    -2.4636  -2.4636  -0.9547  -0.9547   1.1532   1.1532   3.3429   3.3429
     4.6807   4.6807   5.9998   5.9998   6.1830   6.1830   7.1933   7.1933
    10.9853  10.9853  11.2218  11.2218  11.2911  11.2911  13.0239  13.0239
    13.3303  13.3305  13.5094

          k = 0.0000 0.2500-0.2500 ( 15764 PWs)   bands (ev):

   -16.1411 -16.1294 -16.1294 -16.1290 -16.1289 -16.1289 -16.1147 -16.1067
   -16.0918 -16.0665 -16.0665 -16.0532 -16.0531 -16.0426 -16.0096 -16.0096
   -16.0045 -15.9970 -15.9970 -15.9828 -15.9759 -15.9759 -15.9676 -15.9671
   -15.9386 -15.9386 -15.9225 -15.9182 -15.9091 -15.9091 -15.9070 -15.8843
   -15.8759 -15.8591 -15.8442 -15.8442 -15.8433 -15.8433 -15.8417 -15.8310
    -3.1534  -1.3612  -1.3612  -0.4510   0.5552   1.6794   1.6794   4.6631
     4.9970   5.3991   5.3991   5.9991   5.9991   6.2743   7.0391   8.3521
     9.9173  10.1321  10.5357  10.5357  11.1359  11.1359  11.7258  11.8019
    12.7087  13.2724  14.1505

          k = 0.0000-0.5000 0.0000 ( 15762 PWs)   bands (ev):

   -16.1384 -16.1384 -16.1384 -16.1384 -16.1136 -16.1136 -16.1120 -16.1120
   -16.1021 -16.1021 -16.0398 -16.0398 -16.0192 -16.0192 -16.0192 -16.0192
   -16.0107 -16.0107 -15.9784 -15.9784 -15.9784 -15.9784 -15.9617 -15.9617
   -15.9506 -15.9506 -15.9506 -15.9506 -15.9076 -15.9076 -15.8703 -15.8703
   -15.8669 -15.8669 -15.8646 -15.8646 -15.8334 -15.8334 -15.8334 -15.8334
    -2.6740  -2.6740   0.0920   0.0920   0.0920   0.0920   3.9455   3.9455
     5.0657   5.0657   5.0657   5.0657   6.7609   6.7609   6.7867   6.7867
     9.7153   9.7153  11.2513  11.2513  12.7808  12.7808  12.7808  12.7808
    13.3846  13.3846  13.3846

          k = 0.0000-0.5000 0.2500 ( 15730 PWs)   bands (ev):

   -16.1392 -16.1392 -16.1318 -16.1318 -16.1225 -16.1225 -16.1187 -16.1187
   -16.0827 -16.0827 -16.0471 -16.0471 -16.0382 -16.0382 -16.0141 -16.0141
   -16.0044 -16.0044 -15.9836 -15.9836 -15.9806 -15.9806 -15.9538 -15.9538
   -15.9538 -15.9538 -15.9273 -15.9273 -15.9120 -15.9120 -15.8957 -15.8957
   -15.8591 -15.8591 -15.8513 -15.8513 -15.8401 -15.8401 -15.8337 -15.8337
    -2.4636  -2.4636  -0.9547  -0.9547   1.1532   1.1532   3.3429   3.3429
     4.6807   4.6807   5.9998   5.9998   6.1830   6.1830   7.1933   7.1933
    10.9853  10.9853  11.2218  11.2218  11.2911  11.2911  13.0239  13.0240
    13.3303  13.5056  13.5094

          k = 0.0000-0.5000-0.5000 ( 15724 PWs)   bands (ev):

   -16.1312 -16.1312 -16.1312 -16.1312 -16.1269 -16.1269 -16.1269 -16.1269
   -16.0605 -16.0605 -16.0605 -16.0605 -16.0300 -16.0300 -16.0300 -16.0300
   -16.0084 -16.0084 -16.0084 -16.0084 -15.9481 -15.9481 -15.9481 -15.9481
   -15.9304 -15.9304 -15.9304 -15.9304 -15.9198 -15.9198 -15.9198 -15.9198
   -15.8453 -15.8453 -15.8453 -15.8453 -15.8440 -15.8440 -15.8440 -15.8440
    -1.8597  -1.8597  -1.8597  -1.8597   2.2455   2.2455   2.2455   2.2455
     5.0600   5.0600   5.0600   5.0600   7.3233   7.3233   7.3233   7.3233
    10.5483  10.5483  10.5483  10.5484  13.3130  13.3130  13.3130  13.3131
    13.5204  13.5206  13.5208

          k = 0.2475 0.0000 0.0000 ( 15787 PWs)   bands (ev):

   -16.1324 -16.1324 -16.1324 -16.1324 -16.1245 -16.1245 -16.1035 -16.1034
   -16.1034 -16.0866 -16.0603 -16.0476 -16.0361 -16.0361 -16.0361 -16.0361
   -16.0120 -16.0089 -15.9739 -15.9739 -15.9739 -15.9739 -15.9642 -15.9386
   -15.9386 -15.9386 -15.9386 -15.9382 -15.9203 -15.8897 -15.8879 -15.8801
   -15.8801 -15.8674 -15.8480 -15.8480 -15.8391 -15.8391 -15.8391 -15.8391
    -3.3912  -1.5446   0.0697   0.0697   0.0697   0.0697   1.8343   5.3879
     5.3879   5.3879   5.3879   6.0902   6.1088   6.1088   7.9012   7.9012
     9.3909  10.2913  10.5291  10.5647  10.5647  10.5647  10.5647  10.6307
    12.2896  12.2896  15.8567

          k = 0.2475 0.0000 0.2500 ( 15749 PWs)   bands (ev):

   -16.1406 -16.1310 -16.1300 -16.1297 -16.1281 -16.1269 -16.1136 -16.1089
   -16.0923 -16.0688 -16.0662 -16.0519 -16.0506 -16.0428 -16.0097 -16.0095
   -16.0013 -15.9996 -15.9962 -15.9824 -15.9765 -15.9733 -15.9712 -15.9664
   -15.9396 -15.9387 -15.9255 -15.9180 -15.9097 -15.9094 -15.9061 -15.8837
   -15.8728 -15.8598 -15.8448 -15.8442 -15.8433 -15.8426 -15.8418 -15.8316
    -3.1568  -1.3855  -1.3616  -0.4367   0.5927   1.6532   1.6883   4.6660
     4.9942   5.4243   5.4584   5.9862   6.0110   6.2064   7.0908   8.2992
     9.8392  10.1163  10.5112  10.6294  11.1107  11.1887  11.7332  11.8866
    12.5871  13.2224  13.9925

          k = 0.2475 0.0000-0.5000 ( 15716 PWs)   bands (ev):

   -16.1400 -16.1400 -16.1308 -16.1308 -16.1209 -16.1209 -16.1203 -16.1203
   -16.0828 -16.0828 -16.0466 -16.0466 -16.0377 -16.0377 -16.0146 -16.0146
   -16.0064 -16.0064 -15.9826 -15.9826 -15.9814 -15.9814 -15.9531 -15.9531
   -15.9513 -15.9513 -15.9286 -15.9286 -15.9131 -15.9131 -15.8955 -15.8955
   -15.8569 -15.8569 -15.8530 -15.8530 -15.8412 -15.8412 -15.8327 -15.8327
    -2.4661  -2.4661  -0.9646  -0.9646   1.1693   1.1693   3.3537   3.3537
     4.7182   4.7182   6.0381   6.0381   6.1314   6.1314   7.1545   7.1545
    10.9682  10.9682  11.1681  11.1681  11.2289  11.2289  13.1233  13.1233
    13.2668  13.2671  13.5769

          k = 0.2475 0.0000-0.2500 ( 15749 PWs)   bands (ev):

   -16.1406 -16.1310 -16.1300 -16.1297 -16.1281 -16.1269 -16.1136 -16.1089
   -16.0923 -16.0688 -16.0662 -16.0519 -16.0506 -16.0428 -16.0097 -16.0095
   -16.0013 -15.9996 -15.9962 -15.9824 -15.9765 -15.9733 -15.9712 -15.9664
   -15.9396 -15.9387 -15.9255 -15.9180 -15.9097 -15.9094 -15.9061 -15.8837
   -15.8728 -15.8598 -15.8448 -15.8442 -15.8433 -15.8426 -15.8418 -15.8316
    -3.1568  -1.3855  -1.3616  -0.4367   0.5927   1.6532   1.6883   4.6660
     4.9942   5.4243   5.4584   5.9862   6.0110   6.2064   7.0908   8.2992
     9.8392  10.1163  10.5112  10.6294  11.1107  11.1887  11.7332  11.8866
    12.5871  13.2224  13.9926

          k = 0.2475 0.2500 0.0000 ( 15749 PWs)   bands (ev):

   -16.1406 -16.1310 -16.1300 -16.1297 -16.1281 -16.1269 -16.1136 -16.1089
   -16.0923 -16.0688 -16.0662 -16.0519 -16.0506 -16.0428 -16.0097 -16.0095
   -16.0013 -15.9996 -15.9962 -15.9824 -15.9765 -15.9733 -15.9712 -15.9664
   -15.9396 -15.9387 -15.9255 -15.9180 -15.9097 -15.9094 -15.9061 -15.8837
   -15.8728 -15.8598 -15.8448 -15.8442 -15.8433 -15.8426 -15.8418 -15.8316
    -3.1568  -1.3855  -1.3616  -0.4367   0.5927   1.6532   1.6883   4.6660
     4.9942   5.4243   5.4584   5.9862   6.0110   6.2064   7.0908   8.2992
     9.8392  10.1163  10.5112  10.6294  11.1107  11.1887  11.7332  11.8866
    12.5871  13.2224  13.9917

          k = 0.2475 0.2500 0.2500 ( 15723 PWs)   bands (ev):

   -16.1364 -16.1361 -16.1361 -16.1252 -16.1231 -16.1231 -16.1140 -16.1122
   -16.0902 -16.0669 -16.0647 -16.0647 -16.0443 -16.0440 -16.0107 -16.0105
   -16.0105 -15.9939 -15.9939 -15.9923 -15.9783 -15.9767 -15.9767 -15.9397
   -15.9387 -15.9387 -15.9135 -15.9128 -15.9122 -15.9122 -15.9091 -15.8969
   -15.8627 -15.8611 -15.8496 -15.8496 -15.8471 -15.8370 -15.8370 -15.8367
    -2.9321  -1.3048  -1.2866  -1.2866   1.4457   1.4633   1.4633   4.0229
     5.1964   5.2128   5.2128   6.4242   6.4242   6.4885   7.8242   7.8920
     9.1388  10.0638  10.0638  10.1319  12.2192  12.2254  12.6527  12.6528
    12.7339  13.9551  13.9629

          k = 0.2475 0.2500-0.5000 ( 15714 PWs)   bands (ev):

   -16.1363 -16.1363 -16.1271 -16.1271 -16.1250 -16.1250 -16.1154 -16.1154
   -16.0819 -16.0819 -16.0571 -16.0571 -16.0361 -16.0361 -16.0217 -16.0217
   -16.0157 -16.0157 -16.0037 -16.0037 -15.9589 -15.9589 -15.9430 -15.9430
   -15.9402 -15.9402 -15.9211 -15.9211 -15.9150 -15.9150 -15.8993 -15.8993
   -15.8605 -15.8605 -15.8493 -15.8493 -15.8454 -15.8454 -15.8370 -15.8370
    -2.2795  -2.2795  -1.2081  -1.2081   1.2363   1.2363   2.6798   2.6798
     5.1811   5.1811   6.5442   6.5442   6.6060   6.6060   7.0336   7.0336
    10.1247  10.1247  10.9035  10.9035  11.8866  11.8866  12.0983  12.0983
    13.2817  13.2817  14.2136

          k = 0.2475 0.2500-0.2500 ( 15723 PWs)   bands (ev):

   -16.1364 -16.1361 -16.1361 -16.1252 -16.1231 -16.1231 -16.1140 -16.1122
   -16.0902 -16.0669 -16.0647 -16.0647 -16.0443 -16.0440 -16.0107 -16.0105
   -16.0105 -15.9939 -15.9939 -15.9923 -15.9783 -15.9767 -15.9767 -15.9397
   -15.9387 -15.9387 -15.9135 -15.9128 -15.9122 -15.9122 -15.9091 -15.8969
   -15.8627 -15.8611 -15.8496 -15.8496 -15.8471 -15.8370 -15.8370 -15.8367
    -2.9321  -1.3048  -1.2866  -1.2866   1.4457   1.4633   1.4633   4.0229
     5.1964   5.2128   5.2128   6.4242   6.4242   6.4885   7.8242   7.8920
     9.1388  10.0638  10.0638  10.1319  12.2192  12.2254  12.6528  12.6528
    12.7339  13.9550  13.9622

          k = 0.2475-0.5000 0.0000 ( 15716 PWs)   bands (ev):

   -16.1400 -16.1400 -16.1308 -16.1308 -16.1209 -16.1209 -16.1203 -16.1203
   -16.0828 -16.0828 -16.0466 -16.0466 -16.0377 -16.0377 -16.0146 -16.0146
   -16.0064 -16.0064 -15.9826 -15.9826 -15.9814 -15.9814 -15.9531 -15.9531
   -15.9513 -15.9513 -15.9286 -15.9286 -15.9131 -15.9131 -15.8955 -15.8955
   -15.8569 -15.8569 -15.8530 -15.8530 -15.8412 -15.8412 -15.8327 -15.8327
    -2.4661  -2.4661  -0.9646  -0.9646   1.1693   1.1693   3.3537   3.3537
     4.7182   4.7182   6.0381   6.0381   6.1314   6.1314   7.1545   7.1545
    10.9682  10.9682  11.1681  11.1681  11.2289  11.2289  13.1233  13.1233
    13.2668  13.2669  13.5769

          k = 0.2475-0.5000 0.2500 ( 15714 PWs)   bands (ev):

   -16.1363 -16.1363 -16.1271 -16.1271 -16.1250 -16.1250 -16.1155 -16.1154
   -16.0819 -16.0819 -16.0571 -16.0571 -16.0361 -16.0361 -16.0217 -16.0217
   -16.0157 -16.0157 -16.0037 -16.0037 -15.9589 -15.9589 -15.9430 -15.9430
   -15.9402 -15.9402 -15.9211 -15.9211 -15.9150 -15.9150 -15.8993 -15.8993
   -15.8605 -15.8605 -15.8493 -15.8493 -15.8454 -15.8454 -15.8370 -15.8370
    -2.2795  -2.2795  -1.2081  -1.2081   1.2363   1.2363   2.6798   2.6798
     5.1811   5.1811   6.5442   6.5442   6.6060   6.6061   7.0336   7.0336
    10.1247  10.1247  10.9035  10.9035  11.8866  11.8866  12.0983  12.0983
    13.2817  13.2817  14.2135

          k = 0.2475-0.5000-0.5000 ( 15700 PWs)   bands (ev):

   -16.1256 -16.1256 -16.1256 -16.1256 -16.1236 -16.1236 -16.1236 -16.1236
   -16.0702 -16.0702 -16.0702 -16.0702 -16.0317 -16.0316 -16.0316 -16.0316
   -16.0216 -16.0216 -16.0216 -16.0216 -15.9343 -15.9343 -15.9343 -15.9343
   -15.9225 -15.9225 -15.9225 -15.9225 -15.9165 -15.9165 -15.9165 -15.9165
   -15.8495 -15.8495 -15.8495 -15.8495 -15.8492 -15.8492 -15.8492 -15.8492
    -1.7803  -1.7803  -1.7803  -1.7803   1.7441   1.7441   1.7441   1.7441
     6.0054   6.0054   6.0054   6.0054   7.3650   7.3650   7.3650   7.3650
     9.9204   9.9204   9.9204   9.9204  12.3879  12.3879  12.3879  12.3879
    12.7876  12.7876  12.7876

          k = 0.2475-0.5000-0.2500 ( 15714 PWs)   bands (ev):

   -16.1363 -16.1363 -16.1271 -16.1271 -16.1250 -16.1250 -16.1154 -16.1154
   -16.0819 -16.0819 -16.0571 -16.0571 -16.0361 -16.0361 -16.0217 -16.0217
   -16.0157 -16.0157 -16.0037 -16.0037 -15.9589 -15.9589 -15.9430 -15.9430
   -15.9402 -15.9402 -15.9211 -15.9211 -15.9150 -15.9150 -15.8993 -15.8993
   -15.8605 -15.8605 -15.8493 -15.8493 -15.8454 -15.8454 -15.8370 -15.8370
    -2.2795  -2.2795  -1.2081  -1.2081   1.2363   1.2363   2.6798   2.6798
     5.1811   5.1811   6.5442   6.5442   6.6060   6.6061   7.0336   7.0336
    10.1247  10.1247  10.9035  10.9035  11.8866  11.8867  12.0983  12.0983
    13.2817  13.2817  14.2136

          k = 0.2475-0.2500 0.0000 ( 15749 PWs)   bands (ev):

   -16.1406 -16.1310 -16.1300 -16.1297 -16.1281 -16.1269 -16.1136 -16.1089
   -16.0923 -16.0688 -16.0662 -16.0519 -16.0506 -16.0428 -16.0097 -16.0095
   -16.0013 -15.9996 -15.9962 -15.9824 -15.9765 -15.9733 -15.9712 -15.9664
   -15.9396 -15.9387 -15.9255 -15.9180 -15.9097 -15.9094 -15.9061 -15.8837
   -15.8728 -15.8598 -15.8448 -15.8442 -15.8433 -15.8426 -15.8418 -15.8316
    -3.1568  -1.3855  -1.3616  -0.4367   0.5927   1.6532   1.6883   4.6660
     4.9942   5.4243   5.4584   5.9862   6.0110   6.2064   7.0908   8.2992
     9.8392  10.1163  10.5112  10.6294  11.1107  11.1887  11.7332  11.8866
    12.5871  13.2224  13.9899

          k = 0.2475-0.2500 0.2500 ( 15723 PWs)   bands (ev):

   -16.1364 -16.1361 -16.1361 -16.1252 -16.1231 -16.1231 -16.1140 -16.1122
   -16.0902 -16.0669 -16.0647 -16.0647 -16.0443 -16.0440 -16.0107 -16.0105
   -16.0105 -15.9939 -15.9939 -15.9923 -15.9783 -15.9767 -15.9767 -15.9397
   -15.9387 -15.9387 -15.9135 -15.9128 -15.9122 -15.9122 -15.9091 -15.8969
   -15.8627 -15.8611 -15.8496 -15.8496 -15.8471 -15.8370 -15.8370 -15.8367
    -2.9321  -1.3048  -1.2866  -1.2866   1.4457   1.4633   1.4633   4.0229
     5.1964   5.2128   5.2128   6.4242   6.4242   6.4885   7.8242   7.8920
     9.1388  10.0638  10.0638  10.1319  12.2192  12.2254  12.6528  12.6528
    12.7339  13.9551  13.9622

          k = 0.2475-0.2500-0.5000 ( 15714 PWs)   bands (ev):

   -16.1363 -16.1363 -16.1271 -16.1271 -16.1250 -16.1250 -16.1154 -16.1154
   -16.0819 -16.0819 -16.0571 -16.0571 -16.0361 -16.0361 -16.0217 -16.0217
   -16.0157 -16.0157 -16.0037 -16.0037 -15.9589 -15.9589 -15.9430 -15.9430
   -15.9402 -15.9402 -15.9211 -15.9211 -15.9150 -15.9150 -15.8993 -15.8993
   -15.8605 -15.8605 -15.8493 -15.8493 -15.8454 -15.8454 -15.8370 -15.8370
    -2.2795  -2.2795  -1.2081  -1.2081   1.2363   1.2363   2.6798   2.6798
     5.1811   5.1811   6.5442   6.5442   6.6060   6.6060   7.0336   7.0336
    10.1247  10.1247  10.9035  10.9035  11.8866  11.8866  12.0983  12.0983
    13.2817  13.2817  14.2136

          k = 0.2475-0.2500-0.2500 ( 15723 PWs)   bands (ev):

   -16.1364 -16.1361 -16.1361 -16.1252 -16.1231 -16.1231 -16.1140 -16.1122
   -16.0902 -16.0669 -16.0647 -16.0647 -16.0443 -16.0440 -16.0107 -16.0105
   -16.0105 -15.9939 -15.9939 -15.9923 -15.9783 -15.9767 -15.9767 -15.9397
   -15.9387 -15.9387 -15.9135 -15.9128 -15.9122 -15.9122 -15.9091 -15.8969
   -15.8627 -15.8611 -15.8496 -15.8496 -15.8471 -15.8370 -15.8370 -15.8367
    -2.9321  -1.3048  -1.2866  -1.2866   1.4457   1.4633   1.4633   4.0229
     5.1964   5.2128   5.2128   6.4242   6.4242   6.4885   7.8242   7.8920
     9.1388  10.0638  10.0638  10.1319  12.2192  12.2254  12.6528  12.6528
    12.7339  13.9550  13.9622

          k =-0.4950 0.0000 0.0000 ( 15728 PWs)   bands (ev):

   -16.1374 -16.1374 -16.1374 -16.1374 -16.1146 -16.1146 -16.1145 -16.1145
   -16.1031 -16.1031 -16.0396 -16.0396 -16.0158 -16.0158 -16.0158 -16.0158
   -16.0085 -16.0085 -15.9790 -15.9790 -15.9790 -15.9790 -15.9645 -15.9645
   -15.9533 -15.9533 -15.9533 -15.9533 -15.9090 -15.9090 -15.8686 -15.8686
   -15.8635 -15.8635 -15.8635 -15.8635 -15.8345 -15.8345 -15.8345 -15.8345
    -2.6880  -2.6880   0.1088   0.1088   0.1088   0.1088   3.8958   3.8958
     5.0659   5.0659   5.0659   5.0659   6.8252   6.8252   6.8252   6.8252
     9.8005   9.8005  11.2401  11.2401  12.6656  12.6656  12.6656  12.6656
    13.2798  13.2798  13.2799

          k =-0.4950 0.0000 0.2500 ( 15766 PWs)   bands (ev):

   -16.1394 -16.1394 -16.1299 -16.1299 -16.1221 -16.1221 -16.1209 -16.1209
   -16.0844 -16.0844 -16.0445 -16.0445 -16.0377 -16.0377 -16.0125 -16.0125
   -16.0061 -16.0060 -15.9852 -15.9852 -15.9771 -15.9771 -15.9560 -15.9560
   -15.9535 -15.9535 -15.9302 -15.9302 -15.9137 -15.9137 -15.8928 -15.8928
   -15.8562 -15.8562 -15.8515 -15.8515 -15.8422 -15.8422 -15.8334 -15.8334
    -2.4763  -2.4763  -0.9527  -0.9527   1.1805   1.1805   3.3317   3.3317
     4.7093   4.7093   6.0593   6.0593   6.1488   6.1488   7.1668   7.1668
    11.0764  11.0764  11.1602  11.1602  11.2097  11.2097  12.9629  12.9629
    13.2836  13.2837  13.4655

          k =-0.4950 0.0000-0.5000 ( 15728 PWs)   bands (ev):

   -16.1327 -16.1327 -16.1327 -16.1327 -16.1253 -16.1253 -16.1253 -16.1253
   -16.0603 -16.0603 -16.0603 -16.0603 -16.0311 -16.0311 -16.0310 -16.0310
   -16.0082 -16.0082 -16.0082 -16.0082 -15.9477 -15.9477 -15.9477 -15.9477
   -15.9282 -15.9282 -15.9282 -15.9282 -15.9221 -15.9221 -15.9221 -15.9221
   -15.8470 -15.8470 -15.8470 -15.8470 -15.8423 -15.8423 -15.8423 -15.8423
    -1.8677  -1.8677  -1.8677  -1.8677   2.2665   2.2665   2.2665   2.2665
     5.1078   5.1078   5.1078   5.1078   7.2542   7.2542   7.2542   7.2542
    10.4797  10.4797  10.4797  10.4797  13.3041  13.3041  13.3041  13.3041
    13.6089  13.6090  13.6091

          k =-0.4950 0.2500 0.0000 ( 15766 PWs)   bands (ev):

   -16.1394 -16.1394 -16.1299 -16.1299 -16.1221 -16.1221 -16.1209 -16.1209
   -16.0844 -16.0844 -16.0445 -16.0445 -16.0377 -16.0377 -16.0125 -16.0125
   -16.0061 -16.0060 -15.9852 -15.9852 -15.9771 -15.9771 -15.9560 -15.9560
   -15.9535 -15.9535 -15.9302 -15.9302 -15.9137 -15.9137 -15.8928 -15.8928
   -15.8562 -15.8562 -15.8515 -15.8515 -15.8422 -15.8422 -15.8334 -15.8334
    -2.4763  -2.4763  -0.9527  -0.9527   1.1805   1.1805   3.3317   3.3317
     4.7093   4.7093   6.0593   6.0593   6.1488   6.1488   7.1668   7.1668
    11.0764  11.0764  11.1602  11.1602  11.2097  11.2097  12.9629  12.9629
    13.2836  13.2837  13.4655

          k =-0.4950 0.2500 0.2500 ( 15726 PWs)   bands (ev):

   -16.1366 -16.1366 -16.1255 -16.1255 -16.1246 -16.1246 -16.1173 -16.1173
   -16.0832 -16.0831 -16.0553 -16.0553 -16.0360 -16.0360 -16.0200 -16.0200
   -16.0158 -16.0158 -16.0058 -16.0057 -15.9550 -15.9550 -15.9453 -15.9453
   -15.9411 -15.9411 -15.9235 -15.9235 -15.9161 -15.9161 -15.8967 -15.8967
   -15.8582 -15.8582 -15.8497 -15.8497 -15.8472 -15.8472 -15.8366 -15.8366
    -2.2885  -2.2884  -1.2031  -1.2031   1.2475   1.2475   2.6776   2.6776
     5.2072   5.2072   6.5216   6.5216   6.5737   6.5737   7.0885   7.0885
    10.1484  10.1484  10.8163  10.8163  11.8840  11.8840  12.0355  12.0355
    13.3115  13.3115  14.2715

          k =-0.4950 0.2500-0.5000 ( 15736 PWs)   bands (ev):

   -16.1272 -16.1272 -16.1272 -16.1272 -16.1218 -16.1218 -16.1218 -16.1218
   -16.0703 -16.0703 -16.0703 -16.0703 -16.0321 -16.0321 -16.0321 -16.0321
   -16.0215 -16.0215 -16.0215 -16.0215 -15.9337 -15.9337 -15.9337 -15.9337
   -15.9220 -15.9220 -15.9220 -15.9220 -15.9174 -15.9174 -15.9174 -15.9174
   -15.8513 -15.8513 -15.8513 -15.8513 -15.8475 -15.8475 -15.8475 -15.8475
    -1.7847  -1.7847  -1.7847  -1.7847   1.7539   1.7539   1.7539   1.7539
     6.0588   6.0588   6.0588   6.0588   7.2992   7.2992   7.2992   7.2992
     9.8925   9.8925   9.8925   9.8925  12.4191  12.4191  12.4191  12.4191
    12.7663  12.7663  12.7663

          k =-0.4950 0.2500-0.2500 ( 15726 PWs)   bands (ev):

   -16.1366 -16.1366 -16.1255 -16.1255 -16.1246 -16.1246 -16.1173 -16.1173
   -16.0832 -16.0831 -16.0553 -16.0553 -16.0360 -16.0360 -16.0200 -16.0200
   -16.0158 -16.0158 -16.0058 -16.0058 -15.9550 -15.9550 -15.9453 -15.9453
   -15.9411 -15.9411 -15.9235 -15.9235 -15.9162 -15.9161 -15.8967 -15.8967
   -15.8582 -15.8582 -15.8497 -15.8497 -15.8472 -15.8472 -15.8366 -15.8366
    -2.2885  -2.2884  -1.2031  -1.2031   1.2475   1.2475   2.6776   2.6776
     5.2072   5.2072   6.5216   6.5216   6.5737   6.5737   7.0885   7.0886
    10.1484  10.1484  10.8163  10.8163  11.8840  11.8840  12.0355  12.0355
    13.3115  13.3115  14.1897

          k =-0.4950-0.5000 0.0000 ( 15728 PWs)   bands (ev):

   -16.1327 -16.1327 -16.1327 -16.1327 -16.1253 -16.1253 -16.1253 -16.1253
   -16.0603 -16.0603 -16.0603 -16.0603 -16.0311 -16.0311 -16.0310 -16.0310
   -16.0082 -16.0082 -16.0082 -16.0082 -15.9477 -15.9477 -15.9477 -15.9477
   -15.9282 -15.9282 -15.9282 -15.9282 -15.9221 -15.9221 -15.9221 -15.9221
   -15.8470 -15.8470 -15.8470 -15.8470 -15.8423 -15.8423 -15.8423 -15.8423
    -1.8677  -1.8677  -1.8677  -1.8677   2.2665   2.2665   2.2665   2.2665
     5.1078   5.1078   5.1078   5.1078   7.2542   7.2542   7.2542   7.2542
    10.4797  10.4797  10.4797  10.4797  13.3041  13.3041  13.3041  13.3041
    13.6089  13.6090  13.6091

          k =-0.4950-0.5000 0.2500 ( 15736 PWs)   bands (ev):

   -16.1272 -16.1272 -16.1272 -16.1272 -16.1218 -16.1218 -16.1218 -16.1218
   -16.0703 -16.0703 -16.0703 -16.0703 -16.0321 -16.0321 -16.0321 -16.0321
   -16.0215 -16.0215 -16.0215 -16.0215 -15.9337 -15.9337 -15.9337 -15.9337
   -15.9220 -15.9220 -15.9220 -15.9220 -15.9174 -15.9174 -15.9174 -15.9174
   -15.8513 -15.8513 -15.8513 -15.8513 -15.8475 -15.8475 -15.8475 -15.8475
    -1.7847  -1.7847  -1.7847  -1.7847   1.7539   1.7539   1.7539   1.7539
     6.0588   6.0588   6.0588   6.0588   7.2992   7.2992   7.2992   7.2992
     9.8925   9.8925   9.8925   9.8925  12.4191  12.4191  12.4191  12.4191
    12.7663  12.7663  12.7663

          k =-0.4950-0.5000-0.5000 ( 15616 PWs)   bands (ev):

   -16.1198 -16.1198 -16.1198 -16.1198 -16.1174 -16.1174 -16.1174 -16.1174
   -16.0824 -16.0824 -16.0824 -16.0824 -16.0327 -16.0327 -16.0327 -16.0327
   -16.0326 -16.0326 -16.0326 -16.0326 -15.9223 -15.9222 -15.9222 -15.9222
   -15.9210 -15.9210 -15.9210 -15.9210 -15.9057 -15.9057 -15.9057 -15.9057
   -15.8569 -15.8569 -15.8569 -15.8569 -15.8540 -15.8540 -15.8540 -15.8540
    -1.6912  -1.6912  -1.6912  -1.6912   1.3531   1.3531   1.3531   1.3531
     7.3243   7.3243   7.3243   7.3243   7.4086   7.4086   7.4086   7.4086
     8.6695   8.6695   8.6695   8.6695  12.3544  12.3544  12.3544  12.3576
    12.4069  12.4069  12.4069

     the Fermi energy is     8.6166 ev

!    total energy              =   -1429.13911522 Ry
     estimated scf accuracy    <          2.7E-09 Ry
     smearing contrib. (-TS)   =      -0.00052336 Ry
     internal energy E=F+TS    =   -1429.13859186 Ry

     The total energy is F=E-TS. E is the sum of the following terms:
     one-electron contribution =    -759.70641764 Ry
     hartree contribution      =     453.02252699 Ry
     xc contribution           =    -349.02380939 Ry
     ewald contribution        =    -773.43089181 Ry

     convergence has been achieved in   9 iterations

     Forces acting on atoms (cartesian axes, Ry/au):

     atom    1 type  1   force =    -0.00000031   -0.00000005    0.00000043
     atom    2 type  1   force =     0.00000050    0.00000006    0.00000044
     atom    3 type  1   force =     0.00000024    0.00000001   -0.00000023
     atom    4 type  1   force =    -0.00000052   -0.00000003   -0.00000040
     atom    5 type  1   force =     0.00000077   -0.00000053   -0.00000031
     atom    6 type  1   force =    -0.00000104    0.00000053    0.00000002
     atom    7 type  1   force =    -0.00000050   -0.00000051   -0.00000007
     atom    8 type  1   force =     0.00000086    0.00000052    0.00000013

     Total force =     0.000002     Total SCF correction =     0.000017
     SCF correction compared to forces is large: reduce conv_thr to get better values


     Computing stress (Cartesian axis) and pressure

          total   stress  (Ry/bohr**3)                   (kbar)     P=       -3.32
  -0.00005119  -0.00000000   0.00000000           -7.53       -0.00        0.00
  -0.00000000  -0.00000830   0.00000000           -0.00       -1.22        0.00
   0.00000000   0.00000000  -0.00000830            0.00        0.00       -1.22


     Writing output data file ./Ge_out/Ge_scf.save/
 
     init_run     :      1.06s CPU      1.35s WALL (       1 calls)
     electrons    :     31.29s CPU     40.59s WALL (       1 calls)
     forces       :      0.32s CPU      0.51s WALL (       1 calls)
     stress       :      1.07s CPU      1.65s WALL (       1 calls)

     Called by init_run:
     wfcinit      :      1.01s CPU      1.28s WALL (       1 calls)
     potinit      :      0.01s CPU      0.02s WALL (       1 calls)
     hinit0       :      0.01s CPU      0.02s WALL (       1 calls)

     Called by electrons:
     c_bands      :     27.76s CPU     36.76s WALL (      10 calls)
     sum_band     :      3.48s CPU      3.75s WALL (      10 calls)
     v_of_rho     :      0.05s CPU      0.06s WALL (      10 calls)
     mix_rho      :      0.01s CPU      0.01s WALL (      10 calls)

     Called by c_bands:
     init_us_2    :      0.25s CPU      0.29s WALL (     828 calls)
     cegterg      :     26.67s CPU     35.60s WALL (     360 calls)

     Called by *egterg:
     cdiaghg      :      5.51s CPU     11.40s WALL (    1509 calls)
     h_psi        :     18.09s CPU     20.20s WALL (    1581 calls)
     g_psi        :      0.05s CPU      0.06s WALL (    1185 calls)

     Called by h_psi:
     h_psi:calbec :      0.91s CPU      1.16s WALL (    1581 calls)
     vloc_psi     :     16.59s CPU     18.39s WALL (    1581 calls)
     add_vuspsi   :      0.53s CPU      0.58s WALL (    1581 calls)

     General routines
     calbec       :      1.31s CPU      2.31s WALL (    1761 calls)
     fft          :      0.04s CPU      0.05s WALL (     125 calls)
     ffts         :      0.00s CPU      0.00s WALL (      10 calls)
     fftw         :     18.36s CPU     20.27s WALL (  151334 calls)
 
     Parallel routines
 
     PWSCF        :     34.66s CPU     45.74s WALL

 
   This run was terminated on:  21:11:47   7May2025            

=------------------------------------------------------------------------------=
   JOB DONE.
=------------------------------------------------------------------------------=
