
     Program PWSCF v.6.8 starts on  2Jun2025 at 15: 7:18 

     This program is part of the open-source Quantum ESPRESSO suite
     for quantum simulation of materials; please cite
         "P. Giannozzi et al., J. Phys.:Condens. Matter 21 395502 (2009);
         "P. Giannozzi et al., J. Phys.:Condens. Matter 29 465901 (2017);
         "P. Giannozzi et al., J. Chem. Phys. 152 154105 (2020);
          URL http://www.quantum-espresso.org", 
     in publications or presentations arising from this work. More details at
     http://www.quantum-espresso.org/quote

     Parallel version (MPI & OpenMP), running on       8 processor cores
     Number of MPI processes:                 8
     Threads/MPI process:                     1

     MPI processes distributed on     1 nodes
     K-points division:     npool     =       4
     R & G space division:  proc/nbgrp/npool/nimage =       2
     187804 MiB available memory on the printing compute node when the environment starts
 
     Reading input from 00_scf.in

     Current dimensions of program PWSCF are:
     Max number of different atomic species (ntypx) = 10
     Max number of k-points (npk) =  40000
     Max angular momentum in pseudopotentials (lmaxx) =  4

     Subspace diagonalization in iterative solution of the eigenvalue problem:
     a serial algorithm will be used

 
     Parallelization info
     --------------------
     sticks:   dense  smooth     PW     G-vecs:    dense   smooth      PW
     Min         189     189     60                 2406     2406     469
     Max         190     190     61                 2407     2407     472
     Sum         379     379    121                 4813     4813     941
 
     Using Slab Decomposition
 


     bravais-lattice index     =            2
     lattice parameter (alat)  =       6.7274  a.u.
     unit-cell volume          =      76.1179 (a.u.)^3
     number of atoms/cell      =            2
     number of atomic types    =            1
     number of electrons       =         8.00
     number of Kohn-Sham states=            8
     kinetic-energy cutoff     =      60.0000  Ry
     charge density cutoff     =     240.0000  Ry
     scf convergence threshold =      1.0E-06
     mixing beta               =       0.5000
     number of iterations used =            8  plain     mixing
     Exchange-correlation= PBE
                           (   1   4   3   4   0   0   0)

     celldm(1)=   6.727425  celldm(2)=   0.000000  celldm(3)=   0.000000
     celldm(4)=   0.000000  celldm(5)=   0.000000  celldm(6)=   0.000000

     crystal axes: (cart. coord. in units of alat)
               a(1) = (  -0.500000   0.000000   0.500000 )  
               a(2) = (   0.000000   0.500000   0.500000 )  
               a(3) = (  -0.500000   0.500000   0.000000 )  

     reciprocal axes: (cart. coord. in units 2 pi/alat)
               b(1) = ( -1.000000 -1.000000  1.000000 )  
               b(2) = (  1.000000  1.000000  1.000000 )  
               b(3) = ( -1.000000  1.000000 -1.000000 )  


     PseudoPot. # 1 for C  read from file:
     ./C.upf
     MD5 check sum: 34a24e64c0a39f27c6c36b90a16ac686
     Pseudo is Norm-conserving + core correction, Zval =  4.0
     Generated using ONCVPSP code by D. R. Hamann
     Using radial grid of 1248 points,  4 beta functions with: 
                l(1) =   0
                l(2) =   0
                l(3) =   1
                l(4) =   1

     atomic species   valence    mass     pseudopotential
        C              4.00    12.00000     C ( 1.00)

     No symmetry found



   Cartesian axes

     site n.     atom                  positions (alat units)
         1           C   tau(   1) = (   0.0000000   0.0000000   0.0000000  )
         2           C   tau(   2) = (   0.2500000   0.2500000   0.2500000  )

     number of k points=   512  Gaussian smearing, width (Ry)=  0.0100

     Number of k-points >= 100: set verbosity='high' to print them.

     Dense  grid:     4813 G-vectors     FFT dimensions: (  24,  24,  24)

     Estimated max dynamical RAM per process >       6.76 MB

     Estimated total dynamical RAM >      50.52 MB

     Initial potential from superposition of free atoms

     starting charge    7.99991, renormalised to    8.00000
     Starting wfcs are    8 randomized atomic wfcs

     total cpu time spent up to now is        0.3 secs

     Self-consistent Calculation

     iteration #  1     ecut=    60.00 Ry     beta= 0.50
     Davidson diagonalization with overlap
     ethr =  1.00E-02,  avg # of iterations =  3.2

     total cpu time spent up to now is        0.6 secs

     total energy              =     -24.07007791 Ry
     estimated scf accuracy    <       0.11262737 Ry

     iteration #  2     ecut=    60.00 Ry     beta= 0.50
     Davidson diagonalization with overlap
     ethr =  1.41E-03,  avg # of iterations =  1.2

     total cpu time spent up to now is        0.9 secs

     total energy              =     -24.06678482 Ry
     estimated scf accuracy    <       0.01798691 Ry

     iteration #  3     ecut=    60.00 Ry     beta= 0.50
     Davidson diagonalization with overlap
     ethr =  2.25E-04,  avg # of iterations =  2.1

     total cpu time spent up to now is        1.2 secs

     total energy              =     -24.06851397 Ry
     estimated scf accuracy    <       0.00018795 Ry

     iteration #  4     ecut=    60.00 Ry     beta= 0.50
     Davidson diagonalization with overlap
     ethr =  2.35E-06,  avg # of iterations =  4.6

     total cpu time spent up to now is        1.6 secs

     total energy              =     -24.06854046 Ry
     estimated scf accuracy    <       0.00006792 Ry

     iteration #  5     ecut=    60.00 Ry     beta= 0.50
     Davidson diagonalization with overlap
     ethr =  8.49E-07,  avg # of iterations =  2.0

     total cpu time spent up to now is        2.0 secs

     total energy              =     -24.06855100 Ry
     estimated scf accuracy    <       0.00000467 Ry

     iteration #  6     ecut=    60.00 Ry     beta= 0.50
     Davidson diagonalization with overlap
     ethr =  5.84E-08,  avg # of iterations =  1.1

     total cpu time spent up to now is        2.3 secs

     total energy              =     -24.06854873 Ry
     estimated scf accuracy    <       0.00000396 Ry

     iteration #  7     ecut=    60.00 Ry     beta= 0.50
     Davidson diagonalization with overlap
     ethr =  4.94E-08,  avg # of iterations =  2.0

     total cpu time spent up to now is        2.5 secs

     End of self-consistent calculation

     Number of k-points >= 100: set verbosity='high' to print the bands.

     the Fermi energy is    16.3004 ev

!    total energy              =     -24.06854920 Ry
     estimated scf accuracy    <       0.00000006 Ry
     smearing contrib. (-TS)   =      -0.00000000 Ry
     internal energy E=F+TS    =     -24.06854920 Ry

     The total energy is F=E-TS. E is the sum of the following terms:
     one-electron contribution =       8.31832385 Ry
     hartree contribution      =       1.92360034 Ry
     xc contribution           =      -8.68736539 Ry
     ewald contribution        =     -25.62310800 Ry

     convergence has been achieved in   7 iterations

     Writing output data file ./C_out/C_scf.save/
 
     init_run     :      0.08s CPU      0.17s WALL (       1 calls)
     electrons    :      1.60s CPU      2.30s WALL (       1 calls)

     Called by init_run:
     wfcinit      :      0.07s CPU      0.12s WALL (       1 calls)
     potinit      :      0.00s CPU      0.01s WALL (       1 calls)
     hinit0       :      0.01s CPU      0.03s WALL (       1 calls)

     Called by electrons:
     c_bands      :      1.37s CPU      2.03s WALL (       7 calls)
     sum_band     :      0.21s CPU      0.23s WALL (       7 calls)
     v_of_rho     :      0.01s CPU      0.02s WALL (       8 calls)
     mix_rho      :      0.00s CPU      0.00s WALL (       7 calls)

     Called by c_bands:
     init_us_2    :      0.06s CPU      0.07s WALL (    1920 calls)
     cegterg      :      1.19s CPU      1.29s WALL (     896 calls)

     Called by *egterg:
     cdiaghg      :      0.17s CPU      0.22s WALL (    2922 calls)
     h_psi        :      0.90s CPU      1.00s WALL (    3050 calls)
     g_psi        :      0.01s CPU      0.01s WALL (    2026 calls)

     Called by h_psi:
     h_psi:calbec :      0.04s CPU      0.05s WALL (    3050 calls)
     vloc_psi     :      0.82s CPU      0.89s WALL (    3050 calls)
     add_vuspsi   :      0.02s CPU      0.03s WALL (    3050 calls)

     General routines
     calbec       :      0.04s CPU      0.05s WALL (    3050 calls)
     fft          :      0.00s CPU      0.02s WALL (      80 calls)
     ffts         :      0.00s CPU      0.00s WALL (       7 calls)
     fftw         :      0.76s CPU      0.84s WALL (   45152 calls)
 
     Parallel routines
 
     PWSCF        :      1.74s CPU      2.94s WALL

 
   This run was terminated on:  15: 7:20   2Jun2025            

=------------------------------------------------------------------------------=
   JOB DONE.
=------------------------------------------------------------------------------=
