
     Program PWSCF v.6.8 starts on  2Jun2025 at 15: 7:21 

     This program is part of the open-source Quantum ESPRESSO suite
     for quantum simulation of materials; please cite
         "P. Giannozzi et al., J. Phys.:Condens. Matter 21 395502 (2009);
         "P. Giannozzi et al., J. Phys.:Condens. Matter 29 465901 (2017);
         "P. Giannozzi et al., J. Chem. Phys. 152 154105 (2020);
          URL http://www.quantum-espresso.org", 
     in publications or presentations arising from this work. More details at
     http://www.quantum-espresso.org/quote

     Parallel version (MPI & OpenMP), running on       8 processor cores
     Number of MPI processes:                 8
     Threads/MPI process:                     1

     MPI processes distributed on     1 nodes
     K-points division:     npool     =       4
     R & G space division:  proc/nbgrp/npool/nimage =       2
     187731 MiB available memory on the printing compute node when the environment starts
 
     Reading input from 01_nscf.in

     Current dimensions of program PWSCF are:
     Max number of different atomic species (ntypx) = 10
     Max number of k-points (npk) =  40000
     Max angular momentum in pseudopotentials (lmaxx) =  4

     Subspace diagonalization in iterative solution of the eigenvalue problem:
     a serial algorithm will be used

 
     Parallelization info
     --------------------
     sticks:   dense  smooth     PW     G-vecs:    dense   smooth      PW
     Min         189     189     63                 2406     2406     482
     Max         190     190     64                 2407     2407     483
     Sum         379     379    127                 4813     4813     965
 
     Using Slab Decomposition
 


     bravais-lattice index     =            2
     lattice parameter (alat)  =       6.7274  a.u.
     unit-cell volume          =      76.1179 (a.u.)^3
     number of atoms/cell      =            2
     number of atomic types    =            1
     number of electrons       =         8.00
     number of Kohn-Sham states=           20
     kinetic-energy cutoff     =      60.0000  Ry
     charge density cutoff     =     240.0000  Ry
     scf convergence threshold =      1.0E-06
     mixing beta               =       0.5000
     number of iterations used =            8  plain     mixing
     Exchange-correlation= PBE
                           (   1   4   3   4   0   0   0)

     celldm(1)=   6.727425  celldm(2)=   0.000000  celldm(3)=   0.000000
     celldm(4)=   0.000000  celldm(5)=   0.000000  celldm(6)=   0.000000

     crystal axes: (cart. coord. in units of alat)
               a(1) = (  -0.500000   0.000000   0.500000 )  
               a(2) = (   0.000000   0.500000   0.500000 )  
               a(3) = (  -0.500000   0.500000   0.000000 )  

     reciprocal axes: (cart. coord. in units 2 pi/alat)
               b(1) = ( -1.000000 -1.000000  1.000000 )  
               b(2) = (  1.000000  1.000000  1.000000 )  
               b(3) = ( -1.000000  1.000000 -1.000000 )  


     PseudoPot. # 1 for C  read from file:
     ./C.upf
     MD5 check sum: 34a24e64c0a39f27c6c36b90a16ac686
     Pseudo is Norm-conserving + core correction, Zval =  4.0
     Generated using ONCVPSP code by D. R. Hamann
     Using radial grid of 1248 points,  4 beta functions with: 
                l(1) =   0
                l(2) =   0
                l(3) =   1
                l(4) =   1

     atomic species   valence    mass     pseudopotential
        C              4.00    12.00000     C ( 1.00)

     No symmetry found



   Cartesian axes

     site n.     atom                  positions (alat units)
         1           C   tau(   1) = (   0.0000000   0.0000000   0.0000000  )
         2           C   tau(   2) = (   0.2500000   0.2500000   0.2500000  )

     number of k points=  8000  Gaussian smearing, width (Ry)=  0.0100

     Number of k-points >= 100: set verbosity='high' to print them.

     Dense  grid:     4813 G-vectors     FFT dimensions: (  24,  24,  24)

     Estimated max dynamical RAM per process >     184.32 MB

     Estimated total dynamical RAM >       1.44 GB

     Initial potential from superposition of free atoms

     starting charge    7.99991, renormalised to    8.00000
     Starting wfcs are    8 randomized atomic wfcs +   12 random wfcs

     total cpu time spent up to now is        2.7 secs

     Self-consistent Calculation

     iteration #  1     ecut=    60.00 Ry     beta= 0.50
     Davidson diagonalization with overlap
     ethr =  1.00E-02,  avg # of iterations =  6.5

     total cpu time spent up to now is       22.1 secs

     total energy              =     -24.06865313 Ry
     estimated scf accuracy    <       0.11742791 Ry

     iteration #  2     ecut=    60.00 Ry     beta= 0.50
     Davidson diagonalization with overlap
     ethr =  1.47E-03,  avg # of iterations =  1.0

     total cpu time spent up to now is       30.5 secs

     total energy              =     -24.06735867 Ry
     estimated scf accuracy    <       0.01655035 Ry

     iteration #  3     ecut=    60.00 Ry     beta= 0.50
     Davidson diagonalization with overlap
     ethr =  2.07E-04,  avg # of iterations =  1.0

     total cpu time spent up to now is       39.0 secs

     total energy              =     -24.06862960 Ry
     estimated scf accuracy    <       0.00018862 Ry

     iteration #  4     ecut=    60.00 Ry     beta= 0.50
     Davidson diagonalization with overlap
     ethr =  2.36E-06,  avg # of iterations =  3.5

     total cpu time spent up to now is       50.7 secs

     End of self-consistent calculation

     Number of k-points >= 100: set verbosity='high' to print the bands.

     the Fermi energy is    16.6109 ev

!    total energy              =     -24.06863783 Ry
     estimated scf accuracy    <       0.00000075 Ry
     smearing contrib. (-TS)   =      -0.00000000 Ry
     internal energy E=F+TS    =     -24.06863783 Ry

     The total energy is F=E-TS. E is the sum of the following terms:
     one-electron contribution =       8.31860042 Ry
     hartree contribution      =       1.92297713 Ry
     xc contribution           =      -8.68710737 Ry
     ewald contribution        =     -25.62310800 Ry

     convergence has been achieved in   4 iterations

     Writing output data file ./C_out/C_scf.save/
 
     init_run     :      2.43s CPU      2.70s WALL (       1 calls)
     electrons    :     39.63s CPU     47.97s WALL (       1 calls)

     Called by init_run:
     wfcinit      :      2.38s CPU      2.64s WALL (       1 calls)
     potinit      :      0.00s CPU      0.00s WALL (       1 calls)
     hinit0       :      0.01s CPU      0.01s WALL (       1 calls)

     Called by electrons:
     c_bands      :     35.13s CPU     43.15s WALL (       4 calls)
     sum_band     :      4.49s CPU      4.80s WALL (       4 calls)
     v_of_rho     :      0.01s CPU      0.01s WALL (       5 calls)
     mix_rho      :      0.00s CPU      0.00s WALL (       4 calls)

     Called by c_bands:
     init_us_2    :      0.60s CPU      0.67s WALL (   18000 calls)
     cegterg      :     32.99s CPU     35.43s WALL (    8000 calls)

     Called by *egterg:
     cdiaghg      :     10.09s CPU     10.61s WALL (   31801 calls)
     h_psi        :     21.06s CPU     22.96s WALL (   33801 calls)
     g_psi        :      0.26s CPU      0.28s WALL (   23801 calls)

     Called by h_psi:
     h_psi:calbec :      0.74s CPU      0.79s WALL (   33801 calls)
     vloc_psi     :     19.55s CPU     21.32s WALL (   33801 calls)
     add_vuspsi   :      0.43s CPU      0.47s WALL (   33801 calls)

     General routines
     calbec       :      0.69s CPU      0.75s WALL (   33801 calls)
     fft          :      0.00s CPU      0.00s WALL (      50 calls)
     ffts         :      0.00s CPU      0.00s WALL (       4 calls)
     fftw         :     18.17s CPU     19.75s WALL ( 1096452 calls)
 
     Parallel routines
 
     PWSCF        :     43.23s CPU     57.44s WALL

 
   This run was terminated on:  15: 8:19   2Jun2025            

=------------------------------------------------------------------------------=
   JOB DONE.
=------------------------------------------------------------------------------=
