-4.514663375731087669e+00 -7.071065791237005624e-05 4.596192764304019842e-05 -1.414213158247505344e-05 -4.189344851873647357e+00 6.463484463124961055e-01 -0.000000000000000000e+00 6.466136112796675439e-01 -4.189305961011795532e+00
-4.514161330059909716e+00 6.010405922551450647e-05 -8.131725659922559924e-05 7.071065791239017497e-06 -4.189670120900043315e+00 -6.462565224572101030e-01 3.535532895616527193e-06 -6.464156214375128551e-01 -4.189245856952569902e+00
2.258201428957865797e+00 8.838832239047578741e-05 7.778172370360533663e-05 6.717512501675166389e-05 2.094934055371099113e+00 7.722735214557403527e-01 6.717512501675128441e-05 7.721780620675584572e-01 2.094817382785544080e+00
2.256210923937632895e+00 7.071065791215163355e-06 5.656852632986443508e-05 6.010405922551450647e-05 2.094707781265779722e+00 -7.725386864229116801e-01 -9.192385528608114224e-05 -7.720401762846295091e-01 2.094516862489416376e+00
2.258222642155239601e+00 -9.545938818169095585e-05 -9.545938818173866074e-05 -8.131725659922521977e-05 2.095022443693489667e+00 7.722699859228446817e-01 -3.535532895618502812e-05 7.719623945609258575e-01 2.094863344713186581e+00
2.256193246273154873e+00 7.071065791215163355e-06 -0.000000000000000000e+00 -3.535532895618390326e-05 2.094350692443322171e+00 -7.721002803438549167e-01 6.363959212113252614e-05 -7.722947346531139345e-01 2.094361299042009072e+00
