
     Program PWSCF v.6.8 starts on 19May2025 at 15:36:38 

     This program is part of the open-source Quantum ESPRESSO suite
     for quantum simulation of materials; please cite
         "P. Giannozzi et al., J. Phys.:Condens. Matter 21 395502 (2009);
         "P. Giannozzi et al., J. Phys.:Condens. Matter 29 465901 (2017);
         "P. Giannozzi et al., J. Chem. Phys. 152 154105 (2020);
          URL http://www.quantum-espresso.org", 
     in publications or presentations arising from this work. More details at
     http://www.quantum-espresso.org/quote

     Parallel version (MPI & OpenMP), running on       8 processor cores
     Number of MPI processes:                 8
     Threads/MPI process:                     1

     MPI processes distributed on     1 nodes
     R & G space division:  proc/nbgrp/npool/nimage =       8
     188091 MiB available memory on the printing compute node when the environment starts
 
     Reading input from scf_efield_+z.in
Warning: card &CELL ignored
Warning: card    CELL_DYNAMICS    = 'NONE' ignored
Warning: card / ignored
Warning: card &FCP ignored
Warning: card / ignored
Warning: card &RISM ignored
Warning: card / ignored

     Current dimensions of program PWSCF are:
     Max number of different atomic species (ntypx) = 10
     Max number of k-points (npk) =  40000
     Max angular momentum in pseudopotentials (lmaxx) =  4

     Subspace diagonalization in iterative solution of the eigenvalue problem:
     one sub-group per band group will be used
     scalapack distributed-memory algorithm (size of sub-group:  2*  2 procs)

 
     Parallelization info
     --------------------
     sticks:   dense  smooth     PW     G-vecs:    dense   smooth      PW
     Min         110     110     36                 3076     3076     594
     Max         111     111     37                 3077     3077     597
     Sum         883     883    295                24611    24611    4767
 
     Using Slab Decomposition
 


     bravais-lattice index     =            0
     lattice parameter (alat)  =       5.4894  a.u.
     unit-cell volume          =     392.0941 (a.u.)^3
     number of atoms/cell      =            6
     number of atomic types    =            2
     number of electrons       =        52.00
     number of Kohn-Sham states=           26
     kinetic-energy cutoff     =      60.0000  Ry
     charge density cutoff     =     240.0000  Ry
     scf convergence threshold =      1.0E-08
     mixing beta               =       0.7000
     number of iterations used =            8  plain     mixing
     Exchange-correlation= PBE
                           (   1   4   3   4   0   0   0)
 
     Using Berry phase electric field
     In a.u.(Ry)  cartesian system of reference
        0.0000000000
        0.0000000000
        0.0010000000
     In a.u.(Ry)  crystal system of reference
        0.0000000000
       -0.0000000001
        0.0010000000
     Number of iterative cycles:   1
 

     celldm(1)=   5.489440  celldm(2)=   0.000000  celldm(3)=   0.000000
     celldm(4)=   0.000000  celldm(5)=   0.000000  celldm(6)=   0.000000

     crystal axes: (cart. coord. in units of alat)
               a(1) = (   1.000000   0.000000   0.000000 )  
               a(2) = (   0.000000   1.539583  -0.000000 )  
               a(3) = (   0.000000  -0.000000   1.539583 )  

     reciprocal axes: (cart. coord. in units 2 pi/alat)
               b(1) = (  1.000000 -0.000000 -0.000000 )  
               b(2) = ( -0.000000  0.649527  0.000000 )  
               b(3) = ( -0.000000  0.000000  0.649527 )  


     PseudoPot. # 1 for Ge read from file:
     ./Ge.upf
     MD5 check sum: 087fa14d6c89b52166990835c3b338da
     Pseudo is Norm-conserving + core correction, Zval = 14.0
     Generated using ONCVPSP code by D. R. Hamann
     Using radial grid of 1560 points,  6 beta functions with: 
                l(1) =   0
                l(2) =   0
                l(3) =   1
                l(4) =   1
                l(5) =   2
                l(6) =   2

     PseudoPot. # 2 for O  read from file:
     ./O.upf
     MD5 check sum: 9db02a5ece9d56b81b65a73f8163743d
     Pseudo is Norm-conserving + core correction, Zval =  6.0
     Generated using ONCVPSP code by D. R. Hamann
     Using radial grid of  936 points,  5 beta functions with: 
                l(1) =   0
                l(2) =   0
                l(3) =   1
                l(4) =   1
                l(5) =   2

     atomic species   valence    mass     pseudopotential
        Ge            14.00    72.63000     Ge( 1.00)
        O              6.00    15.99900     O ( 1.00)

     No symmetry found



   Cartesian axes

     site n.     atom                  positions (alat units)
         1           Ge  tau(   1) = (   0.5005378   0.7701227   0.7701227  )
         2           Ge  tau(   2) = (   0.0006032   0.0003332   0.0003332  )
         3           O   tau(   3) = (   0.0005626   1.0674164   1.0674164  )
         4           O   tau(   4) = (   0.5005694   1.2426816   0.2976664  )
         5           O   tau(   5) = (   0.0005626   0.4728529   0.4728529  )
         6           O   tau(   6) = (   0.5005694   0.2976664   1.2426816  )

     number of k points=    96
                       cart. coord. in units 2pi/alat
        k(    1) = (   0.0000000   0.0000000   0.0000000), wk =   0.0208333
        k(    2) = (  -0.0000000   0.0000000   0.1623816), wk =   0.0208333
        k(    3) = (  -0.0000000   0.0000000   0.3247633), wk =   0.0208333
        k(    4) = (  -0.0000000   0.0000000   0.4871449), wk =   0.0208333
        k(    5) = (  -0.0000000   0.1623816   0.0000000), wk =   0.0208333
        k(    6) = (  -0.0000000   0.1623816   0.1623816), wk =   0.0208333
        k(    7) = (  -0.0000000   0.1623817   0.3247633), wk =   0.0208333
        k(    8) = (  -0.0000000   0.1623817   0.4871449), wk =   0.0208333
        k(    9) = (  -0.0000000   0.3247633   0.0000000), wk =   0.0208333
        k(   10) = (  -0.0000000   0.3247633   0.1623817), wk =   0.0208333
        k(   11) = (  -0.0000000   0.3247633   0.3247633), wk =   0.0208333
        k(   12) = (  -0.0000000   0.3247633   0.4871449), wk =   0.0208333
        k(   13) = (  -0.0000000   0.4871449   0.0000000), wk =   0.0208333
        k(   14) = (  -0.0000000   0.4871449   0.1623817), wk =   0.0208333
        k(   15) = (  -0.0000000   0.4871449   0.3247633), wk =   0.0208333
        k(   16) = (  -0.0000000   0.4871449   0.4871449), wk =   0.0208333
        k(   17) = (   0.1666667  -0.0000000  -0.0000000), wk =   0.0208333
        k(   18) = (   0.1666667   0.0000000   0.1623816), wk =   0.0208333
        k(   19) = (   0.1666667   0.0000000   0.3247633), wk =   0.0208333
        k(   20) = (   0.1666667   0.0000000   0.4871449), wk =   0.0208333
        k(   21) = (   0.1666667   0.1623816   0.0000000), wk =   0.0208333
        k(   22) = (   0.1666667   0.1623816   0.1623816), wk =   0.0208333
        k(   23) = (   0.1666667   0.1623816   0.3247633), wk =   0.0208333
        k(   24) = (   0.1666667   0.1623817   0.4871449), wk =   0.0208333
        k(   25) = (   0.1666667   0.3247633   0.0000000), wk =   0.0208333
        k(   26) = (   0.1666667   0.3247633   0.1623816), wk =   0.0208333
        k(   27) = (   0.1666667   0.3247633   0.3247633), wk =   0.0208333
        k(   28) = (   0.1666667   0.3247633   0.4871449), wk =   0.0208333
        k(   29) = (   0.1666667   0.4871449   0.0000000), wk =   0.0208333
        k(   30) = (   0.1666667   0.4871449   0.1623817), wk =   0.0208333
        k(   31) = (   0.1666667   0.4871449   0.3247633), wk =   0.0208333
        k(   32) = (   0.1666666   0.4871449   0.4871449), wk =   0.0208333
        k(   33) = (   0.3333333  -0.0000000  -0.0000000), wk =   0.0208333
        k(   34) = (   0.3333333   0.0000000   0.1623816), wk =   0.0208333
        k(   35) = (   0.3333333   0.0000000   0.3247633), wk =   0.0208333
        k(   36) = (   0.3333333   0.0000000   0.4871449), wk =   0.0208333
        k(   37) = (   0.3333333   0.1623816   0.0000000), wk =   0.0208333
        k(   38) = (   0.3333333   0.1623816   0.1623816), wk =   0.0208333
        k(   39) = (   0.3333333   0.1623816   0.3247633), wk =   0.0208333
        k(   40) = (   0.3333333   0.1623817   0.4871449), wk =   0.0208333
        k(   41) = (   0.3333333   0.3247633   0.0000000), wk =   0.0208333
        k(   42) = (   0.3333333   0.3247633   0.1623816), wk =   0.0208333
        k(   43) = (   0.3333333   0.3247633   0.3247633), wk =   0.0208333
        k(   44) = (   0.3333333   0.3247633   0.4871449), wk =   0.0208333
        k(   45) = (   0.3333333   0.4871449   0.0000000), wk =   0.0208333
        k(   46) = (   0.3333333   0.4871449   0.1623817), wk =   0.0208333
        k(   47) = (   0.3333333   0.4871449   0.3247633), wk =   0.0208333
        k(   48) = (   0.3333333   0.4871449   0.4871449), wk =   0.0208333
        k(   49) = (   0.5000000  -0.0000000  -0.0000000), wk =   0.0208333
        k(   50) = (   0.5000000  -0.0000000   0.1623816), wk =   0.0208333
        k(   51) = (   0.5000000   0.0000000   0.3247633), wk =   0.0208333
        k(   52) = (   0.5000000   0.0000000   0.4871449), wk =   0.0208333
        k(   53) = (   0.5000000   0.1623816  -0.0000000), wk =   0.0208333
        k(   54) = (   0.5000000   0.1623816   0.1623816), wk =   0.0208333
        k(   55) = (   0.5000000   0.1623816   0.3247633), wk =   0.0208333
        k(   56) = (   0.5000000   0.1623817   0.4871449), wk =   0.0208333
        k(   57) = (   0.5000000   0.3247633   0.0000000), wk =   0.0208333
        k(   58) = (   0.5000000   0.3247633   0.1623816), wk =   0.0208333
        k(   59) = (   0.5000000   0.3247633   0.3247633), wk =   0.0208333
        k(   60) = (   0.5000000   0.3247633   0.4871449), wk =   0.0208333
        k(   61) = (   0.5000000   0.4871449   0.0000000), wk =   0.0208333
        k(   62) = (   0.5000000   0.4871449   0.1623817), wk =   0.0208333
        k(   63) = (   0.5000000   0.4871449   0.3247633), wk =   0.0208333
        k(   64) = (   0.5000000   0.4871449   0.4871449), wk =   0.0208333
        k(   65) = (   0.6666667  -0.0000000  -0.0000000), wk =   0.0208333
        k(   66) = (   0.6666667  -0.0000000   0.1623816), wk =   0.0208333
        k(   67) = (   0.6666667   0.0000000   0.3247633), wk =   0.0208333
        k(   68) = (   0.6666667   0.0000000   0.4871449), wk =   0.0208333
        k(   69) = (   0.6666667   0.1623816  -0.0000000), wk =   0.0208333
        k(   70) = (   0.6666667   0.1623816   0.1623816), wk =   0.0208333
        k(   71) = (   0.6666667   0.1623816   0.3247633), wk =   0.0208333
        k(   72) = (   0.6666667   0.1623816   0.4871449), wk =   0.0208333
        k(   73) = (   0.6666667   0.3247633   0.0000000), wk =   0.0208333
        k(   74) = (   0.6666667   0.3247633   0.1623816), wk =   0.0208333
        k(   75) = (   0.6666667   0.3247633   0.3247633), wk =   0.0208333
        k(   76) = (   0.6666667   0.3247633   0.4871449), wk =   0.0208333
        k(   77) = (   0.6666667   0.4871449   0.0000000), wk =   0.0208333
        k(   78) = (   0.6666667   0.4871449   0.1623816), wk =   0.0208333
        k(   79) = (   0.6666667   0.4871449   0.3247633), wk =   0.0208333
        k(   80) = (   0.6666666   0.4871449   0.4871449), wk =   0.0208333
        k(   81) = (   0.8333333  -0.0000000  -0.0000000), wk =   0.0208333
        k(   82) = (   0.8333333  -0.0000000   0.1623816), wk =   0.0208333
        k(   83) = (   0.8333333   0.0000000   0.3247632), wk =   0.0208333
        k(   84) = (   0.8333333   0.0000000   0.4871449), wk =   0.0208333
        k(   85) = (   0.8333333   0.1623816  -0.0000000), wk =   0.0208333
        k(   86) = (   0.8333333   0.1623816   0.1623816), wk =   0.0208333
        k(   87) = (   0.8333333   0.1623816   0.3247633), wk =   0.0208333
        k(   88) = (   0.8333333   0.1623816   0.4871449), wk =   0.0208333
        k(   89) = (   0.8333333   0.3247632   0.0000000), wk =   0.0208333
        k(   90) = (   0.8333333   0.3247633   0.1623816), wk =   0.0208333
        k(   91) = (   0.8333333   0.3247633   0.3247633), wk =   0.0208333
        k(   92) = (   0.8333333   0.3247633   0.4871449), wk =   0.0208333
        k(   93) = (   0.8333333   0.4871449   0.0000000), wk =   0.0208333
        k(   94) = (   0.8333333   0.4871449   0.1623816), wk =   0.0208333
        k(   95) = (   0.8333333   0.4871449   0.3247633), wk =   0.0208333
        k(   96) = (   0.8333333   0.4871449   0.4871449), wk =   0.0208333

     Dense  grid:    24611 G-vectors     FFT dimensions: (  27,  45,  45)

     Estimated max dynamical RAM per process >      20.33 MB

     Estimated total dynamical RAM >     162.64 MB

     Check: negative core charge=   -0.000052
     Cannot read rho : file not found

     Initial potential from superposition of free atoms

     starting charge   51.99834, renormalised to   52.00000
     Starting wfcs are   34 randomized atomic wfcs

     total cpu time spent up to now is        0.8 secs

     Self-consistent Calculation

     iteration #  1     ecut=    60.00 Ry     beta= 0.70
     Davidson diagonalization with overlap
     ethr =  1.00E-05,  avg # of iterations =  7.0
 
     Expectation value of exp(iGx): (-0.238215025525580,2.215482807752914E-002)
   1.00000000000000     
     Electronic Dipole per cell (Ry a.u.)   7.53407703078138     
     Ionic Dipole per cell (Ry a.u.)   101.151577625544     
 
     Expectation value of exp(iGx): (-0.421332941620365,1.567236909563546E-002)
   1.53958300451311     
     Electronic Dipole per cell (Ry a.u.)   11.8107019585045     
     Ionic Dipole per cell (Ry a.u.)   227.230714072861     
 
     Expectation value of exp(iGx): (-0.421547385194699,8.457715275440543E-003)
   1.53958300451311     
     Electronic Dipole per cell (Ry a.u.)   11.8758316222226     
     Ionic Dipole per cell (Ry a.u.)   227.230714072861     
Electronic Dipole on Cartesian axes
           1   7.53407748096342     
           2   11.8107014238365     
           3   11.8758310913118     
Ionic Dipole on Cartesian axes
           1   101.151577625544     
           2   227.230714072861     
           3   227.230714072861     

     total cpu time spent up to now is        7.8 secs

     total energy              =    -489.58513050 Ry
     estimated scf accuracy    <       1.20860548 Ry

     iteration #  2     ecut=    60.00 Ry     beta= 0.70
     Davidson diagonalization with overlap
     ethr =  2.32E-03,  avg # of iterations =  4.0
 
     Expectation value of exp(iGx): (-0.149771882455261,1.392532072647239E-002)
   1.00000000000000     
     Electronic Dipole per cell (Ry a.u.)   7.53414224302454     
     Ionic Dipole per cell (Ry a.u.)   101.151577625544     
 
     Expectation value of exp(iGx): (-0.323369136267716,1.200898338451759E-002)
   1.53958300451311     
     Electronic Dipole per cell (Ry a.u.)   11.8109300634444     
     Ionic Dipole per cell (Ry a.u.)   227.230714072861     
 
     Expectation value of exp(iGx): (-0.311694973046732,8.694824391097916E-002)
   1.53958300451311     
     Electronic Dipole per cell (Ry a.u.)   10.9171890514087     
     Ionic Dipole per cell (Ry a.u.)   227.230714072861     
Electronic Dipole on Cartesian axes
           1   7.53414267499113     
           2   11.8109295840801     
           3   10.9171885204861     
Ionic Dipole on Cartesian axes
           1   101.151577625544     
           2   227.230714072861     
           3   227.230714072861     

     total cpu time spent up to now is       11.9 secs

     total energy              =    -489.94409808 Ry
     estimated scf accuracy    <       0.78347600 Ry

     iteration #  3     ecut=    60.00 Ry     beta= 0.70
     Davidson diagonalization with overlap
     ethr =  1.51E-03,  avg # of iterations =  2.0
 
     Expectation value of exp(iGx): (-0.172841643348526,1.607206030505936E-002)
   1.00000000000000     
     Electronic Dipole per cell (Ry a.u.)   7.53411693543720     
     Ionic Dipole per cell (Ry a.u.)   101.151577625544     
 
     Expectation value of exp(iGx): (-0.352263084216768,1.309028065260957E-002)
   1.53958300451311     
     Electronic Dipole per cell (Ry a.u.)   11.8108409708211     
     Ionic Dipole per cell (Ry a.u.)   227.230714072861     
 
     Expectation value of exp(iGx): (-0.247327113434160,0.251171571182511)
   1.53958300451311     
     Electronic Dipole per cell (Ry a.u.)   8.93477463995838     
     Ionic Dipole per cell (Ry a.u.)   227.230714072861     
Electronic Dipole on Cartesian axes
           1   7.53411732972467     
           2   11.8108406058184     
           3   8.93477410904038     
Ionic Dipole on Cartesian axes
           1   101.151577625544     
           2   227.230714072861     
           3   227.230714072861     

     total cpu time spent up to now is       15.5 secs

     total energy              =    -490.06913951 Ry
     estimated scf accuracy    <       0.01164720 Ry

     iteration #  4     ecut=    60.00 Ry     beta= 0.70
     Davidson diagonalization with overlap
     ethr =  2.24E-05,  avg # of iterations =  5.4
 
     Expectation value of exp(iGx): (-0.194532375168036,1.808992021683169E-002)
   1.00000000000000     
     Electronic Dipole per cell (Ry a.u.)   7.53410560701136     
     Ionic Dipole per cell (Ry a.u.)   101.151577625544     
 
     Expectation value of exp(iGx): (-0.376114971581853,1.398167435140753E-002)
   1.53958300451311     
     Electronic Dipole per cell (Ry a.u.)   11.8107900091342     
     Ionic Dipole per cell (Ry a.u.)   227.230714072861     
 
     Expectation value of exp(iGx): (-0.362476849701045,0.101275585451786)
   1.53958300451311     
     Electronic Dipole per cell (Ry a.u.)   10.9156157074352     
     Ionic Dipole per cell (Ry a.u.)   227.230714072861     
Electronic Dipole on Cartesian axes
           1   7.53410603894538     
           2   11.8107895298599     
           3   10.9156151765199     
Ionic Dipole on Cartesian axes
           1   101.151577625544     
           2   227.230714072861     
           3   227.230714072861     

     total cpu time spent up to now is       20.5 secs

     total energy              =    -490.08656860 Ry
     estimated scf accuracy    <       0.02079056 Ry

     iteration #  5     ecut=    60.00 Ry     beta= 0.70
     Davidson diagonalization with overlap
     ethr =  2.24E-05,  avg # of iterations =  2.0
 
     Expectation value of exp(iGx): (-0.191821443491373,1.783778514703042E-002)
   1.00000000000000     
     Electronic Dipole per cell (Ry a.u.)   7.53410612543580     
     Ionic Dipole per cell (Ry a.u.)   101.151577625544     
 
     Expectation value of exp(iGx): (-0.373091864905721,1.386764358966485E-002)
   1.53958300451311     
     Electronic Dipole per cell (Ry a.u.)   11.8108068111162     
     Ionic Dipole per cell (Ry a.u.)   227.230714072861     
 
     Expectation value of exp(iGx): (-0.359523716186189,0.100598460180724)
   1.53958300451311     
     Electronic Dipole per cell (Ry a.u.)   10.9141633584198     
     Ionic Dipole per cell (Ry a.u.)   227.230714072861     
Electronic Dipole on Cartesian axes
           1   7.53410655734253     
           2   11.8108063319257     
           3   10.9141628275035     
Ionic Dipole on Cartesian axes
           1   101.151577625544     
           2   227.230714072861     
           3   227.230714072861     

     total cpu time spent up to now is       24.0 secs

     total energy              =    -490.08637816 Ry
     estimated scf accuracy    <       0.00367463 Ry

     iteration #  6     ecut=    60.00 Ry     beta= 0.70
     Davidson diagonalization with overlap
     ethr =  7.07E-06,  avg # of iterations =  4.0
 
     Expectation value of exp(iGx): (-0.187762731946022,1.746024909703426E-002)
   1.00000000000000     
     Electronic Dipole per cell (Ry a.u.)   7.53410755971066     
     Ionic Dipole per cell (Ry a.u.)   101.151577625544     
 
     Expectation value of exp(iGx): (-0.368726501635603,1.370633405121061E-002)
   1.53958300451311     
     Electronic Dipole per cell (Ry a.u.)   11.8107970339957     
     Ionic Dipole per cell (Ry a.u.)   227.230714072861     
 
     Expectation value of exp(iGx): (-0.355312111672459,9.944885731052661E-002)
   1.53958300451311     
     Electronic Dipole per cell (Ry a.u.)   10.9138769068573     
     Ionic Dipole per cell (Ry a.u.)   227.230714072861     
Electronic Dipole on Cartesian axes
           1   7.53410799161176     
           2   11.8107965548218     
           3   10.9138763759416     
Ionic Dipole on Cartesian axes
           1   101.151577625544     
           2   227.230714072861     
           3   227.230714072861     

     total cpu time spent up to now is       28.2 secs

     total energy              =    -490.08755571 Ry
     estimated scf accuracy    <       0.00002887 Ry

     iteration #  7     ecut=    60.00 Ry     beta= 0.70
     Davidson diagonalization with overlap
     ethr =  5.55E-08,  avg # of iterations =  3.1
 
     Expectation value of exp(iGx): (-0.187425974460063,1.742882552360875E-002)
   1.00000000000000     
     Electronic Dipole per cell (Ry a.u.)   7.53410897337947     
     Ionic Dipole per cell (Ry a.u.)   101.151577625544     
 
     Expectation value of exp(iGx): (-0.368358963353240,1.368930294909543E-002)
   1.53958300451311     
     Electronic Dipole per cell (Ry a.u.)   11.8108317810773     
     Ionic Dipole per cell (Ry a.u.)   227.230714072861     
 
     Expectation value of exp(iGx): (-0.355019496308666,9.913534364214258E-002)
   1.53958300451311     
     Electronic Dipole per cell (Ry a.u.)   10.9161790124945     
     Ionic Dipole per cell (Ry a.u.)   227.230714072861     
Electronic Dipole on Cartesian axes
           1   7.53410940532498     
           2   11.8108313017706     
           3   10.9161784815769     
Ionic Dipole on Cartesian axes
           1   101.151577625544     
           2   227.230714072861     
           3   227.230714072861     

     total cpu time spent up to now is       32.4 secs

     total energy              =    -490.08754155 Ry
     estimated scf accuracy    <       0.00012798 Ry

     iteration #  8     ecut=    60.00 Ry     beta= 0.70
     Davidson diagonalization with overlap
     ethr =  5.55E-08,  avg # of iterations =  2.0
 
     Expectation value of exp(iGx): (-0.187533251123698,1.743878130844652E-002)
   1.00000000000000     
     Electronic Dipole per cell (Ry a.u.)   7.53410923361769     
     Ionic Dipole per cell (Ry a.u.)   101.151577625544     
 
     Expectation value of exp(iGx): (-0.368485860869864,1.369404051200564E-002)
   1.53958300451311     
     Electronic Dipole per cell (Ry a.u.)   11.8108315575702     
     Ionic Dipole per cell (Ry a.u.)   227.230714072861     
 
     Expectation value of exp(iGx): (-0.355145675636021,9.914868847866384E-002)
   1.53958300451311     
     Electronic Dipole per cell (Ry a.u.)   10.9163965436553     
     Ionic Dipole per cell (Ry a.u.)   227.230714072861     
Electronic Dipole on Cartesian axes
           1   7.53410966556734     
           2   11.8108310782510     
           3   10.9163960127377     
Ionic Dipole on Cartesian axes
           1   101.151577625544     
           2   227.230714072861     
           3   227.230714072861     

     total cpu time spent up to now is       36.0 secs

     total energy              =    -490.08752441 Ry
     estimated scf accuracy    <       0.00004488 Ry

     iteration #  9     ecut=    60.00 Ry     beta= 0.70
     Davidson diagonalization with overlap
     ethr =  5.55E-08,  avg # of iterations =  4.0
 
     Expectation value of exp(iGx): (-0.187848265930584,1.746810303699717E-002)
   1.00000000000000     
     Electronic Dipole per cell (Ry a.u.)   7.53410886330533     
     Ionic Dipole per cell (Ry a.u.)   101.151577625544     
 
     Expectation value of exp(iGx): (-0.368825412360132,1.370817121272206E-002)
   1.53958300451311     
     Electronic Dipole per cell (Ry a.u.)   11.8108159831136     
     Ionic Dipole per cell (Ry a.u.)   227.230714072861     
 
     Expectation value of exp(iGx): (-0.355455232982701,9.930260622916373E-002)
   1.53958300451311     
     Electronic Dipole per cell (Ry a.u.)   10.9157263885642     
     Ionic Dipole per cell (Ry a.u.)   227.230714072861     
Electronic Dipole on Cartesian axes
           1   7.53410929524194     
           2   11.8108155038331     
           3   10.9157258576475     
Ionic Dipole on Cartesian axes
           1   101.151577625544     
           2   227.230714072861     
           3   227.230714072861     

     total cpu time spent up to now is       40.1 secs

     total energy              =    -490.08753182 Ry
     estimated scf accuracy    <       0.00000065 Ry

     iteration # 10     ecut=    60.00 Ry     beta= 0.70
     Davidson diagonalization with overlap
     ethr =  1.25E-09,  avg # of iterations =  3.0
 
     Expectation value of exp(iGx): (-0.187877436260780,1.747082739283977E-002)
   1.00000000000000     
     Electronic Dipole per cell (Ry a.u.)   7.53410870953147     
     Ionic Dipole per cell (Ry a.u.)   101.151577625544     
 
     Expectation value of exp(iGx): (-0.368858260389962,1.370944110333713E-002)
   1.53958300451311     
     Electronic Dipole per cell (Ry a.u.)   11.8108154781604     
     Ionic Dipole per cell (Ry a.u.)   227.230714072861     
 
     Expectation value of exp(iGx): (-0.355486171890173,9.931276064399983E-002)
   1.53958300451311     
     Electronic Dipole per cell (Ry a.u.)   10.9157113873374     
     Ionic Dipole per cell (Ry a.u.)   227.230714072861     
Electronic Dipole on Cartesian axes
           1   7.53410914146779     
           2   11.8108149988807     
           3   10.9157108564207     
Ionic Dipole on Cartesian axes
           1   101.151577625544     
           2   227.230714072861     
           3   227.230714072861     

     total cpu time spent up to now is       43.9 secs

     total energy              =    -490.08753262 Ry
     estimated scf accuracy    <       0.00000007 Ry

     iteration # 11     ecut=    60.00 Ry     beta= 0.70
     Davidson diagonalization with overlap
     ethr =  1.30E-10,  avg # of iterations =  3.6
 
     Expectation value of exp(iGx): (-0.187889166505479,1.747192062675759E-002)
   1.00000000000000     
     Electronic Dipole per cell (Ry a.u.)   7.53410867782093     
     Ionic Dipole per cell (Ry a.u.)   101.151577625544     
 
     Expectation value of exp(iGx): (-0.368871470754456,1.370962332076071E-002)
   1.53958300451311     
     Electronic Dipole per cell (Ry a.u.)   11.8108186584320     
     Ionic Dipole per cell (Ry a.u.)   227.230714072861     
 
     Expectation value of exp(iGx): (-0.355501027008016,9.930898694850188E-002)
   1.53958300451311     
     Electronic Dipole per cell (Ry a.u.)   10.9157900471303     
     Ionic Dipole per cell (Ry a.u.)   227.230714072861     
Electronic Dipole on Cartesian axes
           1   7.53410910975881     
           2   11.8108181791477     
           3   10.9157895162134     
Ionic Dipole on Cartesian axes
           1   101.151577625544     
           2   227.230714072861     
           3   227.230714072861     

     total cpu time spent up to now is       47.8 secs

     End of self-consistent calculation

          k = 0.0000 0.0000 0.0000 (  3065 PWs)   bands (ev):

   -14.2935 -14.1205 -13.9851 -13.9831 -13.9831 -13.9272 -13.9127 -13.8853
   -13.8853 -13.8835 -10.2576  -7.4321  -7.4320  -6.7327   0.4408   5.2214
     5.2215   5.7515   6.1908   7.1752   8.0728   8.5180   8.5181   9.7114
     9.7126  10.4941

          k =-0.0000 0.0000 0.1624 (  3089 PWs)   bands (ev):

   -14.2700 -14.1427 -13.9913 -13.9841 -13.9820 -13.9442 -13.9131 -13.9023
   -13.8902 -13.8890  -9.9901  -8.1843  -7.2377  -6.5535   0.9303   4.0054
     5.5907   5.9910   6.7216   7.4974   7.7458   8.5169   8.5744   8.7008
     9.6887  10.1254

          k =-0.0000 0.0000 0.3248 (  3068 PWs)   bands (ev):

   -14.2033 -14.2033 -13.9853 -13.9852 -13.9684 -13.9684 -13.8979 -13.8979
   -13.8880 -13.8880  -9.2358  -9.2356  -6.8042  -6.8041   2.2559   2.2560
     6.6495   6.6497   6.7097   6.7100   7.7617   7.7619   8.6912   8.6915
     9.6949   9.6951

          k =-0.0000 0.0000 0.4871 (  3089 PWs)   bands (ev):

   -14.2700 -14.1427 -13.9913 -13.9841 -13.9820 -13.9442 -13.9131 -13.9023
   -13.8902 -13.8890  -9.9901  -8.1843  -7.2377  -6.5535   0.9303   4.0054
     5.5907   5.9910   6.7216   7.4974   7.7458   8.5169   8.5744   8.7008
     9.6887  10.1254

          k =-0.0000 0.1624 0.0000 (  3089 PWs)   bands (ev):

   -14.2700 -14.1427 -13.9913 -13.9841 -13.9820 -13.9442 -13.9131 -13.9023
   -13.8902 -13.8890  -9.9901  -8.1843  -7.2377  -6.5535   0.9303   4.0054
     5.5907   5.9910   6.7216   7.4974   7.7457   8.5168   8.5744   8.7009
     9.6890  10.1254

          k =-0.0000 0.1624 0.1624 (  3093 PWs)   bands (ev):

   -14.2543 -14.1651 -13.9906 -13.9841 -13.9817 -13.9545 -13.9118 -13.9027
   -13.8929 -13.8884  -9.7260  -8.2371  -7.5333  -6.6616   1.4740   3.9791
     5.3093   6.1994   7.0913   7.2987   7.5226   8.3136   8.4670   8.7148
     9.4574   9.8595

          k =-0.0000 0.1624 0.3248 (  3076 PWs)   bands (ev):

   -14.2106 -14.2106 -13.9861 -13.9861 -13.9714 -13.9714 -13.8961 -13.8961
   -13.8947 -13.8947  -9.0112  -9.0111  -7.1618  -7.1616   2.7803   2.7804
     6.2259   6.2261   6.7386   6.7388   7.9462   7.9463   8.5636   8.5639
     9.4313   9.4313

          k =-0.0000 0.1624 0.4871 (  3093 PWs)   bands (ev):

   -14.2543 -14.1651 -13.9906 -13.9841 -13.9817 -13.9545 -13.9118 -13.9027
   -13.8929 -13.8884  -9.7260  -8.2371  -7.5333  -6.6617   1.4739   3.9791
     5.3093   6.1994   7.0913   7.2987   7.5225   8.3136   8.4671   8.7148
     9.4574   9.8596

          k =-0.0000 0.3248 0.0000 (  3068 PWs)   bands (ev):

   -14.2034 -14.2032 -13.9853 -13.9852 -13.9684 -13.9683 -13.8979 -13.8979
   -13.8880 -13.8880  -9.2389  -9.2325  -6.8076  -6.8007   2.2540   2.2579
     6.6469   6.6523   6.7094   6.7104   7.7607   7.7629   8.6882   8.6944
     9.6907   9.6995

          k =-0.0000 0.3248 0.1624 (  3076 PWs)   bands (ev):

   -14.2107 -14.2106 -13.9861 -13.9861 -13.9714 -13.9714 -13.8961 -13.8961
   -13.8947 -13.8947  -9.0141  -9.0082  -7.1648  -7.1586   2.7786   2.7822
     6.2249   6.2271   6.7366   6.7409   7.9447   7.9478   8.5613   8.5662
     9.4279   9.4348

          k =-0.0000 0.3248 0.3248 (  3076 PWs)   bands (ev):

   -14.2187 -14.2187 -13.9897 -13.9897 -13.9771 -13.9771 -13.8935 -13.8935
   -13.8909 -13.8909  -8.6656  -8.6655  -7.6319  -7.6319   3.4805   3.4806
     5.5643   5.5643   6.8413   6.8414   8.2306   8.2307   8.4170   8.4170
     9.0723   9.0724

          k =-0.0000 0.3248 0.4871 (  3076 PWs)   bands (ev):

   -14.2107 -14.2106 -13.9861 -13.9861 -13.9714 -13.9714 -13.8961 -13.8961
   -13.8947 -13.8947  -9.0141  -9.0082  -7.1648  -7.1586   2.7786   2.7822
     6.2249   6.2271   6.7366   6.7409   7.9447   7.9478   8.5613   8.5662
     9.4279   9.4348

          k =-0.0000 0.4871 0.0000 (  3089 PWs)   bands (ev):

   -14.2700 -14.1427 -13.9913 -13.9841 -13.9820 -13.9442 -13.9131 -13.9023
   -13.8902 -13.8890  -9.9901  -8.1843  -7.2377  -6.5535   0.9303   4.0054
     5.5907   5.9910   6.7216   7.4974   7.7457   8.5168   8.5744   8.7009
     9.6890  10.1254

          k =-0.0000 0.4871 0.1624 (  3093 PWs)   bands (ev):

   -14.2543 -14.1651 -13.9906 -13.9841 -13.9817 -13.9545 -13.9118 -13.9027
   -13.8929 -13.8884  -9.7260  -8.2371  -7.5333  -6.6617   1.4739   3.9791
     5.3093   6.1994   7.0913   7.2987   7.5225   8.3136   8.4671   8.7148
     9.4574   9.8596

          k =-0.0000 0.4871 0.3248 (  3076 PWs)   bands (ev):

   -14.2106 -14.2106 -13.9861 -13.9861 -13.9714 -13.9714 -13.8961 -13.8961
   -13.8947 -13.8947  -9.0112  -9.0111  -7.1618  -7.1616   2.7803   2.7804
     6.2259   6.2261   6.7386   6.7388   7.9462   7.9463   8.5636   8.5639
     9.4313   9.4313

          k =-0.0000 0.4871 0.4871 (  3093 PWs)   bands (ev):

   -14.2543 -14.1651 -13.9906 -13.9841 -13.9817 -13.9545 -13.9118 -13.9027
   -13.8929 -13.8884  -9.7260  -8.2371  -7.5333  -6.6616   1.4740   3.9791
     5.3093   6.1994   7.0913   7.2987   7.5226   8.3136   8.4670   8.7148
     9.4574   9.8595

          k = 0.1667-0.0000-0.0000 (  3097 PWs)   bands (ev):

   -14.2388 -14.0658 -14.0551 -14.0551 -13.9711 -13.9291 -13.9115 -13.9115
   -13.9098 -13.8822  -9.9813  -7.1902  -7.1901  -6.7906   0.4083   5.2509
     5.5139   5.5139   5.9988   6.4700   7.1324   7.4016   7.4017   9.6087
     9.6089  10.2357

          k = 0.1667 0.0000 0.1624 (  3079 PWs)   bands (ev):

   -14.2182 -14.1041 -14.0487 -14.0397 -13.9645 -13.9362 -13.9110 -13.9070
   -13.9053 -13.8844  -9.7204  -7.9735  -7.0282  -6.5240   0.9560   4.2033
     4.6778   5.4783   6.4736   6.8590   7.3677   7.7540   7.9897   9.1444
     9.5441  10.0468

          k = 0.1667 0.0000 0.3248 (  3088 PWs)   bands (ev):

   -14.1675 -14.1675 -14.0444 -14.0444 -13.9536 -13.9536 -13.9104 -13.9104
   -13.8946 -13.8946  -8.9894  -8.9892  -6.6826  -6.6824   2.3715   2.3715
     4.7858   4.7861   7.0366   7.0367   8.0814   8.0814   8.3565   8.3567
     9.5595   9.5597

          k = 0.1667 0.0000 0.4871 (  3079 PWs)   bands (ev):

   -14.2182 -14.1041 -14.0487 -14.0397 -13.9645 -13.9362 -13.9110 -13.9070
   -13.9053 -13.8844  -9.7204  -7.9735  -7.0282  -6.5240   0.9560   4.2033
     4.6778   5.4783   6.4736   6.8590   7.3677   7.7540   7.9897   9.1444
     9.5441  10.0468

          k = 0.1667 0.1624 0.0000 (  3079 PWs)   bands (ev):

   -14.2182 -14.1041 -14.0487 -14.0397 -13.9645 -13.9362 -13.9110 -13.9070
   -13.9053 -13.8844  -9.7204  -7.9735  -7.0282  -6.5240   0.9560   4.2033
     4.6778   5.4783   6.4736   6.8590   7.3676   7.7540   7.9897   9.1444
     9.5442  10.0468

          k = 0.1667 0.1624 0.1624 (  3076 PWs)   bands (ev):

   -14.2018 -14.1184 -14.0540 -14.0385 -13.9630 -13.9415 -13.9111 -13.9048
   -13.9011 -13.8872  -9.4668  -8.0645  -7.2848  -6.5830   1.4601   3.4779
     5.3575   5.6077   6.0277   6.6629   7.3195   7.9032   8.4270   8.8765
     9.4314   9.9505

          k = 0.1667 0.1624 0.3248 (  3070 PWs)   bands (ev):

   -14.1615 -14.1615 -14.0467 -14.0466 -13.9561 -13.9561 -13.9080 -13.9080
   -13.8902 -13.8902  -8.7873  -8.7872  -6.9864  -6.9863   2.5597   2.5598
     5.1843   5.1845   6.7242   6.7242   7.6060   7.6061   8.6281   8.6283
     9.5406   9.5407

          k = 0.1667 0.1624 0.4871 (  3076 PWs)   bands (ev):

   -14.2018 -14.1184 -14.0540 -14.0384 -13.9630 -13.9415 -13.9111 -13.9048
   -13.9011 -13.8872  -9.4668  -8.0645  -7.2848  -6.5831   1.4601   3.4779
     5.3575   5.6077   6.0277   6.6629   7.3194   7.9032   8.4270   8.8765
     9.4314   9.9505

          k = 0.1667 0.3248 0.0000 (  3088 PWs)   bands (ev):

   -14.1676 -14.1674 -14.0444 -14.0444 -13.9536 -13.9536 -13.9104 -13.9104
   -13.8946 -13.8946  -8.9924  -8.9863  -6.6858  -6.6792   2.3696   2.3734
     4.7853   4.7867   7.0360   7.0373   8.0803   8.0825   8.3563   8.3568
     9.5554   9.5638

          k = 0.1667 0.3248 0.1624 (  3070 PWs)   bands (ev):

   -14.1616 -14.1614 -14.0467 -14.0466 -13.9561 -13.9560 -13.9080 -13.9080
   -13.8902 -13.8902  -8.7900  -8.7845  -6.9893  -6.9834   2.5584   2.5612
     5.1839   5.1850   6.7235   6.7249   7.6042   7.6079   8.6266   8.6297
     9.5371   9.5443

          k = 0.1667 0.3248 0.3248 (  3056 PWs)   bands (ev):

   -14.1564 -14.1563 -14.0529 -14.0528 -13.9588 -13.9588 -13.9072 -13.9072
   -13.8877 -13.8877  -8.4945  -8.4944  -7.3772  -7.3772   2.7494   2.7495
     5.7808   5.7808   6.6667   6.6668   6.7370   6.7371   9.1512   9.1513
     9.1888   9.1888

          k = 0.1667 0.3248 0.4871 (  3070 PWs)   bands (ev):

   -14.1616 -14.1614 -14.0467 -14.0466 -13.9561 -13.9560 -13.9080 -13.9080
   -13.8902 -13.8902  -8.7900  -8.7845  -6.9893  -6.9834   2.5583   2.5613
     5.1839   5.1849   6.7235   6.7249   7.6042   7.6079   8.6266   8.6297
     9.5371   9.5443

          k = 0.1667 0.4871 0.0000 (  3079 PWs)   bands (ev):

   -14.2182 -14.1041 -14.0487 -14.0397 -13.9645 -13.9362 -13.9110 -13.9070
   -13.9053 -13.8844  -9.7204  -7.9735  -7.0282  -6.5240   0.9560   4.2033
     4.6778   5.4783   6.4736   6.8590   7.3676   7.7540   7.9897   9.1444
     9.5442  10.0468

          k = 0.1667 0.4871 0.1624 (  3076 PWs)   bands (ev):

   -14.2018 -14.1184 -14.0540 -14.0384 -13.9630 -13.9415 -13.9111 -13.9048
   -13.9011 -13.8872  -9.4668  -8.0645  -7.2848  -6.5831   1.4601   3.4779
     5.3575   5.6077   6.0277   6.6629   7.3195   7.9032   8.4270   8.8765
     9.4314   9.9505

          k = 0.1667 0.4871 0.3248 (  3070 PWs)   bands (ev):

   -14.1615 -14.1615 -14.0467 -14.0466 -13.9561 -13.9561 -13.9080 -13.9080
   -13.8902 -13.8902  -8.7873  -8.7872  -6.9864  -6.9863   2.5597   2.5598
     5.1843   5.1845   6.7242   6.7242   7.6060   7.6061   8.6281   8.6283
     9.5406   9.5407

          k = 0.1667 0.4871 0.4871 (  3076 PWs)   bands (ev):

   -14.2018 -14.1184 -14.0540 -14.0385 -13.9630 -13.9415 -13.9111 -13.9048
   -13.9011 -13.8872  -9.4668  -8.0645  -7.2848  -6.5830   1.4601   3.4779
     5.3575   5.6077   6.0277   6.6629   7.3195   7.9032   8.4270   8.8765
     9.4314   9.9505

          k = 0.3333-0.0000-0.0000 (  3094 PWs)   bands (ev):

   -14.1816 -14.1816 -14.1192 -13.9915 -13.9340 -13.9340 -13.9284 -13.9155
   -13.9053 -13.8848  -9.1861  -7.1650  -6.6763  -6.6763   0.4864   3.3709
     4.9278   5.5989   5.5990   6.3704   6.3704   6.4046   7.2489   9.1450
     9.1451   9.4645

          k = 0.3333 0.0000 0.1624 (  3081 PWs)   bands (ev):

   -14.2127 -14.2020 -14.0629 -13.9886 -13.9375 -13.9356 -13.9168 -13.9129
   -13.8977 -13.8837  -8.9721  -7.6352  -6.6125  -6.5296   0.9712   3.0492
     4.0839   4.6404   5.6118   5.6634   7.4181   7.6468   7.8489   9.0389
     9.1923   9.5428

          k = 0.3333 0.0000 0.3248 (  3084 PWs)   bands (ev):

   -14.2243 -14.2243 -14.0106 -14.0106 -13.9365 -13.9365 -13.9152 -13.9152
   -13.8913 -13.8913  -8.3880  -8.3878  -6.5078  -6.5077   2.1275   2.1276
     3.6754   3.6755   5.6232   5.6234   8.1305   8.1307   8.7364   8.7364
     9.3414   9.3414

          k = 0.3333 0.0000 0.4871 (  3081 PWs)   bands (ev):

   -14.2127 -14.2020 -14.0629 -13.9886 -13.9375 -13.9356 -13.9168 -13.9129
   -13.8977 -13.8837  -8.9721  -7.6352  -6.6125  -6.5296   0.9712   3.0492
     4.0839   4.6404   5.6118   5.6634   7.4181   7.6468   7.8489   9.0389
     9.1923   9.5428

          k = 0.3333 0.1624 0.0000 (  3081 PWs)   bands (ev):

   -14.2127 -14.2020 -14.0629 -13.9886 -13.9375 -13.9356 -13.9168 -13.9129
   -13.8977 -13.8837  -8.9721  -7.6352  -6.6125  -6.5296   0.9712   3.0492
     4.0839   4.6404   5.6117   5.6634   7.4182   7.6468   7.8489   9.0388
     9.1923   9.5427

          k = 0.3333 0.1624 0.1624 (  3084 PWs)   bands (ev):

   -14.2256 -14.1831 -14.0731 -13.9943 -13.9367 -13.9351 -13.9221 -13.9127
   -13.8915 -13.8884  -8.7696  -7.7606  -6.7553  -6.5000   1.1146   2.4291
     4.0010   5.1199   5.2109   6.3935   6.4876   8.2175   8.4502   8.9682
     9.2109   9.5960

          k = 0.3333 0.1624 0.3248 (  3078 PWs)   bands (ev):

   -14.2076 -14.2076 -14.0316 -14.0316 -13.9354 -13.9354 -13.9158 -13.9158
   -13.8885 -13.8885  -8.2552  -8.2550  -6.6546  -6.6545   1.5782   1.5784
     4.6553   4.6553   5.3660   5.3662   8.0424   8.0424   8.7959   8.7960
     9.4082   9.4082

          k = 0.3333 0.1624 0.4871 (  3084 PWs)   bands (ev):

   -14.2256 -14.1831 -14.0731 -13.9943 -13.9367 -13.9351 -13.9221 -13.9127
   -13.8915 -13.8884  -8.7696  -7.7606  -6.7553  -6.5001   1.1146   2.4291
     4.0010   5.1199   5.2109   6.3935   6.4876   8.2175   8.4502   8.9682
     9.2109   9.5960

          k = 0.3333 0.3248 0.0000 (  3084 PWs)   bands (ev):

   -14.2244 -14.2243 -14.0106 -14.0106 -13.9365 -13.9365 -13.9152 -13.9152
   -13.8913 -13.8913  -8.3903  -8.3855  -6.5105  -6.5051   2.1265   2.1286
     3.6748   3.6762   5.6224   5.6242   8.1299   8.1312   8.7360   8.7369
     9.3383   9.3444

          k = 0.3333 0.3248 0.1624 (  3078 PWs)   bands (ev):

   -14.2076 -14.2075 -14.0316 -14.0316 -13.9354 -13.9354 -13.9158 -13.9158
   -13.8885 -13.8885  -8.2571  -8.2531  -6.6567  -6.6523   1.5777   1.5789
     4.6546   4.6561   5.3657   5.3664   8.0412   8.0437   8.7932   8.7987
     9.4048   9.4114

          k = 0.3333 0.3248 0.3248 (  3064 PWs)   bands (ev):

   -14.1819 -14.1819 -14.0598 -14.0598 -13.9320 -13.9320 -13.9172 -13.9172
   -13.8837 -13.8837  -8.0917  -8.0916  -6.8324  -6.8324   1.2668   1.2669
     4.7485   4.7486   6.5951   6.5951   6.8234   6.8234   9.3064   9.3065
     9.3140   9.3141

          k = 0.3333 0.3248 0.4871 (  3078 PWs)   bands (ev):

   -14.2076 -14.2075 -14.0316 -14.0316 -13.9354 -13.9354 -13.9158 -13.9158
   -13.8885 -13.8885  -8.2571  -8.2531  -6.6567  -6.6523   1.5777   1.5790
     4.6547   4.6560   5.3658   5.3664   8.0412   8.0437   8.7932   8.7987
     9.4048   9.4114

          k = 0.3333 0.4871 0.0000 (  3081 PWs)   bands (ev):

   -14.2127 -14.2020 -14.0629 -13.9886 -13.9375 -13.9356 -13.9168 -13.9129
   -13.8977 -13.8837  -8.9721  -7.6352  -6.6125  -6.5296   0.9712   3.0492
     4.0839   4.6404   5.6118   5.6634   7.4182   7.6468   7.8489   9.0388
     9.1923   9.5427

          k = 0.3333 0.4871 0.1624 (  3084 PWs)   bands (ev):

   -14.2256 -14.1831 -14.0731 -13.9943 -13.9367 -13.9351 -13.9221 -13.9127
   -13.8915 -13.8884  -8.7696  -7.7606  -6.7553  -6.5001   1.1146   2.4291
     4.0010   5.1199   5.2109   6.3935   6.4876   8.2175   8.4502   8.9682
     9.2109   9.5960

          k = 0.3333 0.4871 0.3248 (  3078 PWs)   bands (ev):

   -14.2076 -14.2076 -14.0316 -14.0316 -13.9354 -13.9354 -13.9158 -13.9158
   -13.8885 -13.8885  -8.2551  -8.2550  -6.6546  -6.6545   1.5783   1.5783
     4.6553   4.6554   5.3660   5.3662   8.0424   8.0424   8.7959   8.7960
     9.4082   9.4082

          k = 0.3333 0.4871 0.4871 (  3084 PWs)   bands (ev):

   -14.2256 -14.1831 -14.0731 -13.9943 -13.9367 -13.9351 -13.9221 -13.9127
   -13.8915 -13.8884  -8.7696  -7.7606  -6.7553  -6.5000   1.1146   2.4291
     4.0010   5.1199   5.2109   6.3935   6.4876   8.2175   8.4502   8.9682
     9.2109   9.5960

          k = 0.5000-0.0000-0.0000 (  3046 PWs)   bands (ev):

   -14.2329 -14.2328 -14.0208 -14.0207 -13.9351 -13.9351 -13.8860 -13.8860
   -13.8839 -13.8838  -8.0820  -8.0817  -6.3967  -6.3967   1.3803   1.3807
     4.8970   4.8971   5.4848   5.4850   6.9225   6.9225   8.3600   8.3601
     8.6934   8.6934

          k = 0.5000-0.0000 0.1624 (  3068 PWs)   bands (ev):

   -14.2596 -14.2595 -13.9984 -13.9983 -13.9413 -13.9413 -13.8880 -13.8880
   -13.8837 -13.8837  -8.0330  -8.0328  -6.4522  -6.4522   1.4980   1.4983
     4.2885   4.2885   5.0786   5.0787   7.7614   7.7616   8.5645   8.5646
     8.9124   8.9124

          k = 0.5000 0.0000 0.3248 (  3088 PWs)   bands (ev):

   -14.2810 -14.2810 -13.9836 -13.9836 -13.9437 -13.9437 -13.8917 -13.8917
   -13.8830 -13.8830  -7.9798  -7.9798  -6.5117  -6.5116   1.6749   1.6749
     3.6109   3.6109   5.0601   5.0601   7.8633   7.8633   9.1397   9.1398
     9.1722   9.1722

          k = 0.5000 0.0000 0.4871 (  3068 PWs)   bands (ev):

   -14.2596 -14.2595 -13.9984 -13.9983 -13.9413 -13.9413 -13.8880 -13.8880
   -13.8837 -13.8837  -8.0330  -8.0328  -6.4522  -6.4522   1.4980   1.4983
     4.2885   4.2885   5.0786   5.0787   7.7614   7.7616   8.5645   8.5646
     8.9124   8.9124

          k = 0.5000 0.1624-0.0000 (  3068 PWs)   bands (ev):

   -14.2596 -14.2595 -13.9984 -13.9983 -13.9413 -13.9413 -13.8880 -13.8880
   -13.8837 -13.8837  -8.0330  -8.0328  -6.4522  -6.4522   1.4980   1.4983
     4.2885   4.2886   5.0786   5.0787   7.7614   7.7616   8.5646   8.5646
     8.9123   8.9124

          k = 0.5000 0.1624 0.1624 (  3080 PWs)   bands (ev):

   -14.2812 -14.2408 -14.0262 -13.9799 -13.9461 -13.9433 -13.8893 -13.8875
   -13.8847 -13.8842  -7.9858  -7.9677  -6.5029  -6.4676   0.8758   1.6794
     3.9827   4.3956   4.4760   6.4103   6.9554   8.6676   8.6682   8.7172
     8.8690   9.1627

          k = 0.5000 0.1624 0.3248 (  3088 PWs)   bands (ev):

   -14.2655 -14.2655 -14.0025 -14.0025 -13.9474 -13.9474 -13.8901 -13.8900
   -13.8862 -13.8862  -7.9163  -7.9163  -6.5231  -6.5231   0.9782   0.9783
     4.1532   4.1532   5.3142   5.3142   8.1373   8.1373   8.9217   8.9217
     9.2821   9.2821

          k = 0.5000 0.1624 0.4871 (  3080 PWs)   bands (ev):

   -14.2811 -14.2409 -14.0262 -13.9799 -13.9461 -13.9433 -13.8894 -13.8875
   -13.8847 -13.8842  -7.9858  -7.9677  -6.5029  -6.4676   0.8758   1.6794
     3.9826   4.3957   4.4759   6.4103   6.9554   8.6676   8.6682   8.7172
     8.8690   9.1627

          k = 0.5000 0.3248 0.0000 (  3088 PWs)   bands (ev):

   -14.2810 -14.2810 -13.9836 -13.9836 -13.9437 -13.9437 -13.8917 -13.8917
   -13.8830 -13.8830  -7.9798  -7.9798  -6.5117  -6.5116   1.6749   1.6749
     3.6109   3.6109   5.0601   5.0601   7.8633   7.8633   9.1400   9.1400
     9.1719   9.1719

          k = 0.5000 0.3248 0.1624 (  3088 PWs)   bands (ev):

   -14.2655 -14.2655 -14.0025 -14.0025 -13.9474 -13.9474 -13.8901 -13.8900
   -13.8862 -13.8862  -7.9163  -7.9163  -6.5231  -6.5231   0.9782   0.9783
     4.1532   4.1533   5.3141   5.3141   8.1374   8.1374   8.9217   8.9217
     9.2820   9.2820

          k = 0.5000 0.3248 0.3248 (  3112 PWs)   bands (ev):

   -14.2511 -14.2511 -14.0329 -14.0329 -13.9527 -13.9527 -13.8914 -13.8914
   -13.8887 -13.8887  -7.8499  -7.8499  -6.5370  -6.5369   0.5287   0.5288
     4.0049   4.0049   6.9307   6.9308   7.0113   7.0113   9.1827   9.1828
     9.3879   9.3879

          k = 0.5000 0.3248 0.4871 (  3088 PWs)   bands (ev):

   -14.2655 -14.2655 -14.0025 -14.0025 -13.9474 -13.9474 -13.8901 -13.8900
   -13.8862 -13.8862  -7.9163  -7.9163  -6.5231  -6.5231   0.9782   0.9783
     4.1532   4.1533   5.3141   5.3141   8.1374   8.1374   8.9217   8.9217
     9.2820   9.2820

          k = 0.5000 0.4871 0.0000 (  3068 PWs)   bands (ev):

   -14.2596 -14.2595 -13.9984 -13.9983 -13.9413 -13.9413 -13.8880 -13.8880
   -13.8837 -13.8837  -8.0330  -8.0328  -6.4522  -6.4522   1.4980   1.4983
     4.2885   4.2886   5.0786   5.0787   7.7614   7.7616   8.5646   8.5646
     8.9123   8.9124

          k = 0.5000 0.4871 0.1624 (  3080 PWs)   bands (ev):

   -14.2811 -14.2409 -14.0262 -13.9799 -13.9461 -13.9433 -13.8894 -13.8875
   -13.8847 -13.8842  -7.9858  -7.9677  -6.5029  -6.4676   0.8758   1.6794
     3.9826   4.3957   4.4759   6.4103   6.9554   8.6676   8.6682   8.7172
     8.8690   9.1627

          k = 0.5000 0.4871 0.3248 (  3088 PWs)   bands (ev):

   -14.2655 -14.2655 -14.0025 -14.0025 -13.9474 -13.9474 -13.8901 -13.8900
   -13.8862 -13.8862  -7.9163  -7.9163  -6.5231  -6.5231   0.9782   0.9783
     4.1532   4.1532   5.3142   5.3142   8.1373   8.1373   8.9217   8.9217
     9.2821   9.2821

          k = 0.5000 0.4871 0.4871 (  3080 PWs)   bands (ev):

   -14.2812 -14.2408 -14.0262 -13.9799 -13.9461 -13.9433 -13.8893 -13.8875
   -13.8847 -13.8842  -7.9858  -7.9677  -6.5029  -6.4676   0.8758   1.6794
     3.9827   4.3956   4.4760   6.4103   6.9554   8.6676   8.6682   8.7172
     8.8690   9.1627

          k = 0.6667-0.0000-0.0000 (  3094 PWs)   bands (ev):

   -14.1816 -14.1816 -14.1192 -13.9915 -13.9340 -13.9340 -13.9284 -13.9155
   -13.9053 -13.8848  -9.1861  -7.1650  -6.6763  -6.6763   0.4864   3.3709
     4.9278   5.5989   5.5990   6.3704   6.3704   6.4046   7.2489   9.1450
     9.1451   9.4645

          k = 0.6667-0.0000 0.1624 (  3081 PWs)   bands (ev):

   -14.2127 -14.2020 -14.0629 -13.9886 -13.9375 -13.9356 -13.9168 -13.9129
   -13.8977 -13.8837  -8.9721  -7.6352  -6.6125  -6.5296   0.9712   3.0492
     4.0839   4.6404   5.6118   5.6634   7.4181   7.6468   7.8489   9.0389
     9.1923   9.5428

          k = 0.6667 0.0000 0.3248 (  3084 PWs)   bands (ev):

   -14.2243 -14.2243 -14.0106 -14.0106 -13.9365 -13.9365 -13.9152 -13.9152
   -13.8913 -13.8913  -8.3880  -8.3878  -6.5078  -6.5077   2.1275   2.1276
     3.6754   3.6755   5.6232   5.6234   8.1305   8.1307   8.7364   8.7364
     9.3414   9.3414

          k = 0.6667 0.0000 0.4871 (  3081 PWs)   bands (ev):

   -14.2127 -14.2020 -14.0629 -13.9886 -13.9375 -13.9356 -13.9168 -13.9129
   -13.8977 -13.8837  -8.9721  -7.6352  -6.6125  -6.5296   0.9712   3.0492
     4.0839   4.6404   5.6118   5.6634   7.4181   7.6468   7.8489   9.0389
     9.1923   9.5428

          k = 0.6667 0.1624-0.0000 (  3081 PWs)   bands (ev):

   -14.2127 -14.2020 -14.0629 -13.9886 -13.9375 -13.9356 -13.9168 -13.9129
   -13.8977 -13.8837  -8.9721  -7.6352  -6.6125  -6.5296   0.9712   3.0492
     4.0839   4.6404   5.6118   5.6634   7.4182   7.6468   7.8489   9.0388
     9.1923   9.5427

          k = 0.6667 0.1624 0.1624 (  3084 PWs)   bands (ev):

   -14.2256 -14.1831 -14.0731 -13.9943 -13.9367 -13.9351 -13.9221 -13.9127
   -13.8915 -13.8884  -8.7696  -7.7606  -6.7553  -6.5000   1.1146   2.4291
     4.0010   5.1199   5.2109   6.3935   6.4876   8.2175   8.4502   8.9682
     9.2109   9.5960

          k = 0.6667 0.1624 0.3248 (  3078 PWs)   bands (ev):

   -14.2076 -14.2076 -14.0316 -14.0316 -13.9354 -13.9354 -13.9158 -13.9158
   -13.8885 -13.8885  -8.2551  -8.2550  -6.6546  -6.6545   1.5783   1.5783
     4.6553   4.6554   5.3660   5.3662   8.0424   8.0424   8.7959   8.7960
     9.4082   9.4082

          k = 0.6667 0.1624 0.4871 (  3084 PWs)   bands (ev):

   -14.2256 -14.1831 -14.0731 -13.9943 -13.9367 -13.9351 -13.9221 -13.9127
   -13.8915 -13.8884  -8.7696  -7.7606  -6.7553  -6.5001   1.1146   2.4291
     4.0010   5.1199   5.2109   6.3935   6.4876   8.2175   8.4502   8.9682
     9.2109   9.5960

          k = 0.6667 0.3248 0.0000 (  3084 PWs)   bands (ev):

   -14.2244 -14.2243 -14.0106 -14.0106 -13.9365 -13.9365 -13.9152 -13.9152
   -13.8913 -13.8913  -8.3903  -8.3855  -6.5105  -6.5051   2.1265   2.1286
     3.6748   3.6762   5.6224   5.6242   8.1299   8.1312   8.7360   8.7369
     9.3383   9.3444

          k = 0.6667 0.3248 0.1624 (  3078 PWs)   bands (ev):

   -14.2076 -14.2075 -14.0316 -14.0316 -13.9354 -13.9354 -13.9158 -13.9158
   -13.8885 -13.8885  -8.2571  -8.2531  -6.6567  -6.6523   1.5777   1.5790
     4.6547   4.6560   5.3658   5.3664   8.0412   8.0437   8.7932   8.7987
     9.4048   9.4114

          k = 0.6667 0.3248 0.3248 (  3064 PWs)   bands (ev):

   -14.1819 -14.1819 -14.0598 -14.0598 -13.9320 -13.9320 -13.9172 -13.9172
   -13.8837 -13.8837  -8.0917  -8.0916  -6.8324  -6.8324   1.2668   1.2669
     4.7485   4.7486   6.5951   6.5951   6.8234   6.8234   9.3064   9.3065
     9.3140   9.3141

          k = 0.6667 0.3248 0.4871 (  3078 PWs)   bands (ev):

   -14.2076 -14.2075 -14.0316 -14.0316 -13.9354 -13.9354 -13.9158 -13.9158
   -13.8885 -13.8885  -8.2571  -8.2531  -6.6567  -6.6523   1.5777   1.5789
     4.6546   4.6561   5.3657   5.3664   8.0412   8.0437   8.7932   8.7987
     9.4048   9.4114

          k = 0.6667 0.4871 0.0000 (  3081 PWs)   bands (ev):

   -14.2127 -14.2020 -14.0629 -13.9886 -13.9375 -13.9356 -13.9168 -13.9129
   -13.8977 -13.8837  -8.9721  -7.6352  -6.6125  -6.5296   0.9712   3.0492
     4.0839   4.6404   5.6117   5.6634   7.4182   7.6468   7.8489   9.0388
     9.1923   9.5427

          k = 0.6667 0.4871 0.1624 (  3084 PWs)   bands (ev):

   -14.2256 -14.1831 -14.0731 -13.9943 -13.9367 -13.9351 -13.9221 -13.9127
   -13.8915 -13.8884  -8.7696  -7.7606  -6.7553  -6.5001   1.1146   2.4291
     4.0010   5.1199   5.2109   6.3935   6.4876   8.2175   8.4502   8.9682
     9.2109   9.5960

          k = 0.6667 0.4871 0.3248 (  3078 PWs)   bands (ev):

   -14.2076 -14.2076 -14.0316 -14.0316 -13.9354 -13.9354 -13.9158 -13.9158
   -13.8885 -13.8885  -8.2552  -8.2550  -6.6546  -6.6545   1.5782   1.5784
     4.6553   4.6553   5.3660   5.3662   8.0424   8.0424   8.7959   8.7960
     9.4082   9.4082

          k = 0.6667 0.4871 0.4871 (  3084 PWs)   bands (ev):

   -14.2256 -14.1831 -14.0731 -13.9943 -13.9367 -13.9351 -13.9221 -13.9127
   -13.8915 -13.8884  -8.7696  -7.7606  -6.7553  -6.5000   1.1146   2.4291
     4.0010   5.1199   5.2109   6.3935   6.4876   8.2175   8.4502   8.9682
     9.2109   9.5960

          k = 0.8333-0.0000-0.0000 (  3097 PWs)   bands (ev):

   -14.2388 -14.0658 -14.0551 -14.0551 -13.9711 -13.9291 -13.9115 -13.9115
   -13.9098 -13.8822  -9.9813  -7.1902  -7.1901  -6.7906   0.4083   5.2509
     5.5139   5.5139   5.9988   6.4700   7.1324   7.4016   7.4017   9.6087
     9.6089  10.2357

          k = 0.8333-0.0000 0.1624 (  3079 PWs)   bands (ev):

   -14.2182 -14.1041 -14.0487 -14.0397 -13.9645 -13.9362 -13.9110 -13.9070
   -13.9053 -13.8844  -9.7204  -7.9735  -7.0282  -6.5240   0.9560   4.2033
     4.6778   5.4783   6.4736   6.8590   7.3677   7.7540   7.9897   9.1444
     9.5441  10.0468

          k = 0.8333 0.0000 0.3248 (  3088 PWs)   bands (ev):

   -14.1675 -14.1675 -14.0444 -14.0444 -13.9536 -13.9536 -13.9104 -13.9104
   -13.8946 -13.8946  -8.9894  -8.9892  -6.6826  -6.6824   2.3715   2.3715
     4.7858   4.7861   7.0366   7.0367   8.0814   8.0814   8.3565   8.3567
     9.5595   9.5597

          k = 0.8333 0.0000 0.4871 (  3079 PWs)   bands (ev):

   -14.2182 -14.1041 -14.0487 -14.0397 -13.9645 -13.9362 -13.9110 -13.9070
   -13.9053 -13.8844  -9.7204  -7.9735  -7.0282  -6.5240   0.9560   4.2033
     4.6778   5.4783   6.4736   6.8590   7.3677   7.7540   7.9897   9.1444
     9.5441  10.0468

          k = 0.8333 0.1624-0.0000 (  3079 PWs)   bands (ev):

   -14.2182 -14.1041 -14.0487 -14.0397 -13.9645 -13.9362 -13.9110 -13.9070
   -13.9053 -13.8844  -9.7204  -7.9735  -7.0282  -6.5240   0.9560   4.2033
     4.6778   5.4783   6.4736   6.8590   7.3676   7.7540   7.9897   9.1444
     9.5442  10.0468

          k = 0.8333 0.1624 0.1624 (  3076 PWs)   bands (ev):

   -14.2018 -14.1184 -14.0540 -14.0385 -13.9630 -13.9415 -13.9111 -13.9048
   -13.9011 -13.8872  -9.4668  -8.0645  -7.2848  -6.5830   1.4601   3.4779
     5.3575   5.6077   6.0277   6.6629   7.3195   7.9032   8.4270   8.8765
     9.4314   9.9505

          k = 0.8333 0.1624 0.3248 (  3070 PWs)   bands (ev):

   -14.1615 -14.1615 -14.0467 -14.0466 -13.9561 -13.9561 -13.9080 -13.9080
   -13.8902 -13.8902  -8.7873  -8.7872  -6.9864  -6.9863   2.5597   2.5598
     5.1843   5.1845   6.7242   6.7242   7.6060   7.6061   8.6281   8.6283
     9.5406   9.5407

          k = 0.8333 0.1624 0.4871 (  3076 PWs)   bands (ev):

   -14.2018 -14.1184 -14.0540 -14.0384 -13.9630 -13.9415 -13.9111 -13.9048
   -13.9011 -13.8872  -9.4668  -8.0645  -7.2848  -6.5831   1.4601   3.4779
     5.3575   5.6077   6.0277   6.6629   7.3195   7.9032   8.4270   8.8765
     9.4314   9.9505

          k = 0.8333 0.3248 0.0000 (  3088 PWs)   bands (ev):

   -14.1676 -14.1674 -14.0444 -14.0444 -13.9536 -13.9536 -13.9104 -13.9104
   -13.8946 -13.8946  -8.9924  -8.9863  -6.6858  -6.6792   2.3696   2.3734
     4.7853   4.7867   7.0360   7.0373   8.0803   8.0825   8.3563   8.3568
     9.5554   9.5638

          k = 0.8333 0.3248 0.1624 (  3070 PWs)   bands (ev):

   -14.1616 -14.1614 -14.0467 -14.0466 -13.9561 -13.9560 -13.9080 -13.9080
   -13.8902 -13.8902  -8.7900  -8.7845  -6.9893  -6.9834   2.5583   2.5613
     5.1839   5.1849   6.7235   6.7249   7.6042   7.6079   8.6266   8.6297
     9.5371   9.5443

          k = 0.8333 0.3248 0.3248 (  3056 PWs)   bands (ev):

   -14.1564 -14.1563 -14.0529 -14.0528 -13.9588 -13.9588 -13.9072 -13.9072
   -13.8877 -13.8877  -8.4945  -8.4944  -7.3772  -7.3772   2.7494   2.7495
     5.7808   5.7808   6.6667   6.6668   6.7370   6.7371   9.1512   9.1513
     9.1888   9.1888

          k = 0.8333 0.3248 0.4871 (  3070 PWs)   bands (ev):

   -14.1616 -14.1614 -14.0467 -14.0466 -13.9561 -13.9560 -13.9080 -13.9080
   -13.8902 -13.8902  -8.7900  -8.7845  -6.9893  -6.9834   2.5584   2.5612
     5.1839   5.1850   6.7235   6.7249   7.6042   7.6079   8.6266   8.6297
     9.5371   9.5443

          k = 0.8333 0.4871 0.0000 (  3079 PWs)   bands (ev):

   -14.2182 -14.1041 -14.0487 -14.0397 -13.9645 -13.9362 -13.9110 -13.9070
   -13.9053 -13.8844  -9.7204  -7.9735  -7.0282  -6.5240   0.9560   4.2033
     4.6778   5.4783   6.4736   6.8590   7.3676   7.7540   7.9897   9.1444
     9.5442  10.0468

          k = 0.8333 0.4871 0.1624 (  3076 PWs)   bands (ev):

   -14.2018 -14.1184 -14.0540 -14.0384 -13.9630 -13.9415 -13.9111 -13.9048
   -13.9011 -13.8872  -9.4668  -8.0645  -7.2848  -6.5831   1.4601   3.4779
     5.3575   5.6077   6.0277   6.6629   7.3194   7.9032   8.4270   8.8765
     9.4314   9.9505

          k = 0.8333 0.4871 0.3248 (  3070 PWs)   bands (ev):

   -14.1615 -14.1615 -14.0467 -14.0466 -13.9561 -13.9561 -13.9080 -13.9080
   -13.8902 -13.8902  -8.7873  -8.7872  -6.9864  -6.9863   2.5597   2.5598
     5.1843   5.1845   6.7242   6.7242   7.6060   7.6061   8.6281   8.6283
     9.5406   9.5407

          k = 0.8333 0.4871 0.4871 (  3076 PWs)   bands (ev):

   -14.2018 -14.1184 -14.0540 -14.0385 -13.9630 -13.9415 -13.9111 -13.9048
   -13.9011 -13.8872  -9.4668  -8.0645  -7.2848  -6.5830   1.4601   3.4779
     5.3575   5.6077   6.0277   6.6629   7.3195   7.9032   8.4270   8.8765
     9.4314   9.9505

     highest occupied level (ev):    10.4941

!    total energy              =    -490.08753272 Ry
     estimated scf accuracy    <          7.4E-09 Ry

     The total energy is the sum of the following terms:
     one-electron contribution =    -162.97675612 Ry
     hartree contribution      =     122.82644491 Ry
     xc contribution           =    -121.43912948 Ry
     ewald contribution        =    -328.25994553 Ry

     convergence has been achieved in  11 iterations

     Forces acting on atoms (cartesian axes, Ry/au):

     atom    1 type  1   force =     0.00003950   -0.00089730    0.00594217
     atom    2 type  1   force =    -0.00005724    0.00092521    0.00593502
     atom    3 type  2   force =    -0.00000780   -0.00194457   -0.00381537
     atom    4 type  2   force =     0.00001667    0.00192562   -0.00384639
     atom    5 type  2   force =    -0.00000767   -0.00021676   -0.00208721
     atom    6 type  2   force =     0.00001652    0.00020779   -0.00212823

     Total force =     0.010864     Total SCF correction =     0.000095
 
     init_run     :      0.64s CPU      0.72s WALL (       1 calls)
     electrons    :     38.98s CPU     47.04s WALL (       1 calls)
     forces       :      0.25s CPU      0.26s WALL (       1 calls)

     Called by init_run:
     wfcinit      :      0.57s CPU      0.63s WALL (       1 calls)
     potinit      :      0.03s CPU      0.03s WALL (       1 calls)
     hinit0       :      0.04s CPU      0.05s WALL (       1 calls)

     Called by electrons:
     c_bands      :     30.90s CPU     37.00s WALL (      11 calls)
     sum_band     :      1.86s CPU      1.92s WALL (      11 calls)
     v_of_rho     :      0.03s CPU      0.03s WALL (      12 calls)
     mix_rho      :      0.01s CPU      0.01s WALL (      11 calls)

     Called by c_bands:
     init_us_2    :      0.27s CPU      0.30s WALL (    2304 calls)
     cegterg      :     29.31s CPU     35.30s WALL (    1056 calls)

     Called by *egterg:
     cdiaghg      :      4.04s CPU      5.45s WALL (    4928 calls)
     h_psi        :     23.79s CPU     28.07s WALL (    5024 calls)
     g_psi        :      0.06s CPU      0.08s WALL (    3872 calls)

     Called by h_psi:
     h_psi:calbec :      0.58s CPU      0.61s WALL (    5024 calls)
     vloc_psi     :     10.18s CPU     10.73s WALL (    5024 calls)
     add_vuspsi   :      0.42s CPU      0.44s WALL (    5024 calls)

     General routines
     calbec       :      0.63s CPU      0.66s WALL (    5408 calls)
     fft          :      0.01s CPU      0.02s WALL (     130 calls)
     ffts         :      0.00s CPU      0.00s WALL (      11 calls)
     fftw         :     10.77s CPU     11.32s WALL (  205136 calls)
 
     Parallel routines

     Electric-field routines
     h_epsi_set   :      3.19s CPU      3.26s WALL (      11 calls)
     h_epsi_apply :     12.54s CPU     16.22s WALL (    4928 calls)
     c_phase_fiel :      3.00s CPU      4.83s WALL (      33 calls)
 
     PWSCF        :     39.91s CPU     48.07s WALL

 
   This run was terminated on:  15:37:26  19May2025            

=------------------------------------------------------------------------------=
   JOB DONE.
=------------------------------------------------------------------------------=
