
     Program PWSCF v.6.8 starts on 19May2025 at 15:34: 0 

     This program is part of the open-source Quantum ESPRESSO suite
     for quantum simulation of materials; please cite
         "P. Giannozzi et al., J. Phys.:Condens. Matter 21 395502 (2009);
         "P. Giannozzi et al., J. Phys.:Condens. Matter 29 465901 (2017);
         "P. Giannozzi et al., J. Chem. Phys. 152 154105 (2020);
          URL http://www.quantum-espresso.org", 
     in publications or presentations arising from this work. More details at
     http://www.quantum-espresso.org/quote

     Parallel version (MPI & OpenMP), running on       8 processor cores
     Number of MPI processes:                 8
     Threads/MPI process:                     1

     MPI processes distributed on     1 nodes
     R & G space division:  proc/nbgrp/npool/nimage =       8
     188102 MiB available memory on the printing compute node when the environment starts
 
     Reading input from scf_efield_-x.in
Warning: card &CELL ignored
Warning: card    CELL_DYNAMICS    = 'NONE' ignored
Warning: card / ignored
Warning: card &FCP ignored
Warning: card / ignored
Warning: card &RISM ignored
Warning: card / ignored

     Current dimensions of program PWSCF are:
     Max number of different atomic species (ntypx) = 10
     Max number of k-points (npk) =  40000
     Max angular momentum in pseudopotentials (lmaxx) =  4

     Subspace diagonalization in iterative solution of the eigenvalue problem:
     one sub-group per band group will be used
     scalapack distributed-memory algorithm (size of sub-group:  2*  2 procs)

 
     Parallelization info
     --------------------
     sticks:   dense  smooth     PW     G-vecs:    dense   smooth      PW
     Min         110     110     36                 3076     3076     594
     Max         111     111     37                 3077     3077     597
     Sum         883     883    295                24611    24611    4767
 
     Using Slab Decomposition
 


     bravais-lattice index     =            0
     lattice parameter (alat)  =       5.4894  a.u.
     unit-cell volume          =     392.0941 (a.u.)^3
     number of atoms/cell      =            6
     number of atomic types    =            2
     number of electrons       =        52.00
     number of Kohn-Sham states=           26
     kinetic-energy cutoff     =      60.0000  Ry
     charge density cutoff     =     240.0000  Ry
     scf convergence threshold =      1.0E-08
     mixing beta               =       0.7000
     number of iterations used =            8  plain     mixing
     Exchange-correlation= PBE
                           (   1   4   3   4   0   0   0)
 
     Using Berry phase electric field
     In a.u.(Ry)  cartesian system of reference
       -0.0010000000
        0.0000000000
        0.0000000000
     In a.u.(Ry)  crystal system of reference
       -0.0010000000
       -0.0000000000
       -0.0000000000
     Number of iterative cycles:   1
 

     celldm(1)=   5.489440  celldm(2)=   0.000000  celldm(3)=   0.000000
     celldm(4)=   0.000000  celldm(5)=   0.000000  celldm(6)=   0.000000

     crystal axes: (cart. coord. in units of alat)
               a(1) = (   1.000000   0.000000   0.000000 )  
               a(2) = (   0.000000   1.539583  -0.000000 )  
               a(3) = (   0.000000  -0.000000   1.539583 )  

     reciprocal axes: (cart. coord. in units 2 pi/alat)
               b(1) = (  1.000000 -0.000000 -0.000000 )  
               b(2) = ( -0.000000  0.649527  0.000000 )  
               b(3) = ( -0.000000  0.000000  0.649527 )  


     PseudoPot. # 1 for Ge read from file:
     ./Ge.upf
     MD5 check sum: 087fa14d6c89b52166990835c3b338da
     Pseudo is Norm-conserving + core correction, Zval = 14.0
     Generated using ONCVPSP code by D. R. Hamann
     Using radial grid of 1560 points,  6 beta functions with: 
                l(1) =   0
                l(2) =   0
                l(3) =   1
                l(4) =   1
                l(5) =   2
                l(6) =   2

     PseudoPot. # 2 for O  read from file:
     ./O.upf
     MD5 check sum: 9db02a5ece9d56b81b65a73f8163743d
     Pseudo is Norm-conserving + core correction, Zval =  6.0
     Generated using ONCVPSP code by D. R. Hamann
     Using radial grid of  936 points,  5 beta functions with: 
                l(1) =   0
                l(2) =   0
                l(3) =   1
                l(4) =   1
                l(5) =   2

     atomic species   valence    mass     pseudopotential
        Ge            14.00    72.63000     Ge( 1.00)
        O              6.00    15.99900     O ( 1.00)

     No symmetry found



   Cartesian axes

     site n.     atom                  positions (alat units)
         1           Ge  tau(   1) = (   0.5005378   0.7701227   0.7701227  )
         2           Ge  tau(   2) = (   0.0006032   0.0003332   0.0003332  )
         3           O   tau(   3) = (   0.0005626   1.0674164   1.0674164  )
         4           O   tau(   4) = (   0.5005694   1.2426816   0.2976664  )
         5           O   tau(   5) = (   0.0005626   0.4728529   0.4728529  )
         6           O   tau(   6) = (   0.5005694   0.2976664   1.2426816  )

     number of k points=    96
                       cart. coord. in units 2pi/alat
        k(    1) = (   0.0000000   0.0000000   0.0000000), wk =   0.0208333
        k(    2) = (  -0.0000000   0.0000000   0.1623816), wk =   0.0208333
        k(    3) = (  -0.0000000   0.0000000   0.3247633), wk =   0.0208333
        k(    4) = (  -0.0000000   0.0000000   0.4871449), wk =   0.0208333
        k(    5) = (  -0.0000000   0.1623816   0.0000000), wk =   0.0208333
        k(    6) = (  -0.0000000   0.1623816   0.1623816), wk =   0.0208333
        k(    7) = (  -0.0000000   0.1623817   0.3247633), wk =   0.0208333
        k(    8) = (  -0.0000000   0.1623817   0.4871449), wk =   0.0208333
        k(    9) = (  -0.0000000   0.3247633   0.0000000), wk =   0.0208333
        k(   10) = (  -0.0000000   0.3247633   0.1623817), wk =   0.0208333
        k(   11) = (  -0.0000000   0.3247633   0.3247633), wk =   0.0208333
        k(   12) = (  -0.0000000   0.3247633   0.4871449), wk =   0.0208333
        k(   13) = (  -0.0000000   0.4871449   0.0000000), wk =   0.0208333
        k(   14) = (  -0.0000000   0.4871449   0.1623817), wk =   0.0208333
        k(   15) = (  -0.0000000   0.4871449   0.3247633), wk =   0.0208333
        k(   16) = (  -0.0000000   0.4871449   0.4871449), wk =   0.0208333
        k(   17) = (   0.1666667  -0.0000000  -0.0000000), wk =   0.0208333
        k(   18) = (   0.1666667   0.0000000   0.1623816), wk =   0.0208333
        k(   19) = (   0.1666667   0.0000000   0.3247633), wk =   0.0208333
        k(   20) = (   0.1666667   0.0000000   0.4871449), wk =   0.0208333
        k(   21) = (   0.1666667   0.1623816   0.0000000), wk =   0.0208333
        k(   22) = (   0.1666667   0.1623816   0.1623816), wk =   0.0208333
        k(   23) = (   0.1666667   0.1623816   0.3247633), wk =   0.0208333
        k(   24) = (   0.1666667   0.1623817   0.4871449), wk =   0.0208333
        k(   25) = (   0.1666667   0.3247633   0.0000000), wk =   0.0208333
        k(   26) = (   0.1666667   0.3247633   0.1623816), wk =   0.0208333
        k(   27) = (   0.1666667   0.3247633   0.3247633), wk =   0.0208333
        k(   28) = (   0.1666667   0.3247633   0.4871449), wk =   0.0208333
        k(   29) = (   0.1666667   0.4871449   0.0000000), wk =   0.0208333
        k(   30) = (   0.1666667   0.4871449   0.1623817), wk =   0.0208333
        k(   31) = (   0.1666667   0.4871449   0.3247633), wk =   0.0208333
        k(   32) = (   0.1666666   0.4871449   0.4871449), wk =   0.0208333
        k(   33) = (   0.3333333  -0.0000000  -0.0000000), wk =   0.0208333
        k(   34) = (   0.3333333   0.0000000   0.1623816), wk =   0.0208333
        k(   35) = (   0.3333333   0.0000000   0.3247633), wk =   0.0208333
        k(   36) = (   0.3333333   0.0000000   0.4871449), wk =   0.0208333
        k(   37) = (   0.3333333   0.1623816   0.0000000), wk =   0.0208333
        k(   38) = (   0.3333333   0.1623816   0.1623816), wk =   0.0208333
        k(   39) = (   0.3333333   0.1623816   0.3247633), wk =   0.0208333
        k(   40) = (   0.3333333   0.1623817   0.4871449), wk =   0.0208333
        k(   41) = (   0.3333333   0.3247633   0.0000000), wk =   0.0208333
        k(   42) = (   0.3333333   0.3247633   0.1623816), wk =   0.0208333
        k(   43) = (   0.3333333   0.3247633   0.3247633), wk =   0.0208333
        k(   44) = (   0.3333333   0.3247633   0.4871449), wk =   0.0208333
        k(   45) = (   0.3333333   0.4871449   0.0000000), wk =   0.0208333
        k(   46) = (   0.3333333   0.4871449   0.1623817), wk =   0.0208333
        k(   47) = (   0.3333333   0.4871449   0.3247633), wk =   0.0208333
        k(   48) = (   0.3333333   0.4871449   0.4871449), wk =   0.0208333
        k(   49) = (   0.5000000  -0.0000000  -0.0000000), wk =   0.0208333
        k(   50) = (   0.5000000  -0.0000000   0.1623816), wk =   0.0208333
        k(   51) = (   0.5000000   0.0000000   0.3247633), wk =   0.0208333
        k(   52) = (   0.5000000   0.0000000   0.4871449), wk =   0.0208333
        k(   53) = (   0.5000000   0.1623816  -0.0000000), wk =   0.0208333
        k(   54) = (   0.5000000   0.1623816   0.1623816), wk =   0.0208333
        k(   55) = (   0.5000000   0.1623816   0.3247633), wk =   0.0208333
        k(   56) = (   0.5000000   0.1623817   0.4871449), wk =   0.0208333
        k(   57) = (   0.5000000   0.3247633   0.0000000), wk =   0.0208333
        k(   58) = (   0.5000000   0.3247633   0.1623816), wk =   0.0208333
        k(   59) = (   0.5000000   0.3247633   0.3247633), wk =   0.0208333
        k(   60) = (   0.5000000   0.3247633   0.4871449), wk =   0.0208333
        k(   61) = (   0.5000000   0.4871449   0.0000000), wk =   0.0208333
        k(   62) = (   0.5000000   0.4871449   0.1623817), wk =   0.0208333
        k(   63) = (   0.5000000   0.4871449   0.3247633), wk =   0.0208333
        k(   64) = (   0.5000000   0.4871449   0.4871449), wk =   0.0208333
        k(   65) = (   0.6666667  -0.0000000  -0.0000000), wk =   0.0208333
        k(   66) = (   0.6666667  -0.0000000   0.1623816), wk =   0.0208333
        k(   67) = (   0.6666667   0.0000000   0.3247633), wk =   0.0208333
        k(   68) = (   0.6666667   0.0000000   0.4871449), wk =   0.0208333
        k(   69) = (   0.6666667   0.1623816  -0.0000000), wk =   0.0208333
        k(   70) = (   0.6666667   0.1623816   0.1623816), wk =   0.0208333
        k(   71) = (   0.6666667   0.1623816   0.3247633), wk =   0.0208333
        k(   72) = (   0.6666667   0.1623816   0.4871449), wk =   0.0208333
        k(   73) = (   0.6666667   0.3247633   0.0000000), wk =   0.0208333
        k(   74) = (   0.6666667   0.3247633   0.1623816), wk =   0.0208333
        k(   75) = (   0.6666667   0.3247633   0.3247633), wk =   0.0208333
        k(   76) = (   0.6666667   0.3247633   0.4871449), wk =   0.0208333
        k(   77) = (   0.6666667   0.4871449   0.0000000), wk =   0.0208333
        k(   78) = (   0.6666667   0.4871449   0.1623816), wk =   0.0208333
        k(   79) = (   0.6666667   0.4871449   0.3247633), wk =   0.0208333
        k(   80) = (   0.6666666   0.4871449   0.4871449), wk =   0.0208333
        k(   81) = (   0.8333333  -0.0000000  -0.0000000), wk =   0.0208333
        k(   82) = (   0.8333333  -0.0000000   0.1623816), wk =   0.0208333
        k(   83) = (   0.8333333   0.0000000   0.3247632), wk =   0.0208333
        k(   84) = (   0.8333333   0.0000000   0.4871449), wk =   0.0208333
        k(   85) = (   0.8333333   0.1623816  -0.0000000), wk =   0.0208333
        k(   86) = (   0.8333333   0.1623816   0.1623816), wk =   0.0208333
        k(   87) = (   0.8333333   0.1623816   0.3247633), wk =   0.0208333
        k(   88) = (   0.8333333   0.1623816   0.4871449), wk =   0.0208333
        k(   89) = (   0.8333333   0.3247632   0.0000000), wk =   0.0208333
        k(   90) = (   0.8333333   0.3247633   0.1623816), wk =   0.0208333
        k(   91) = (   0.8333333   0.3247633   0.3247633), wk =   0.0208333
        k(   92) = (   0.8333333   0.3247633   0.4871449), wk =   0.0208333
        k(   93) = (   0.8333333   0.4871449   0.0000000), wk =   0.0208333
        k(   94) = (   0.8333333   0.4871449   0.1623816), wk =   0.0208333
        k(   95) = (   0.8333333   0.4871449   0.3247633), wk =   0.0208333
        k(   96) = (   0.8333333   0.4871449   0.4871449), wk =   0.0208333

     Dense  grid:    24611 G-vectors     FFT dimensions: (  27,  45,  45)

     Estimated max dynamical RAM per process >      20.33 MB

     Estimated total dynamical RAM >     162.64 MB

     Check: negative core charge=   -0.000052
     Cannot read rho : file not found

     Initial potential from superposition of free atoms

     starting charge   51.99834, renormalised to   52.00000
     Starting wfcs are   34 randomized atomic wfcs

     total cpu time spent up to now is        0.8 secs

     Self-consistent Calculation

     iteration #  1     ecut=    60.00 Ry     beta= 0.70
     Davidson diagonalization with overlap
     ethr =  1.00E-05,  avg # of iterations =  7.0
 
     Expectation value of exp(iGx): (-0.237452345450385,2.921019478937487E-002)
   1.00000000000000     
     Electronic Dipole per cell (Ry a.u.)   7.46077553750473     
     Ionic Dipole per cell (Ry a.u.)   101.151577625544     
 
     Expectation value of exp(iGx): (-0.421332197312781,1.567961114227178E-002)
   1.53958300451311     
     Electronic Dipole per cell (Ry a.u.)   11.8106364059993     
     Ionic Dipole per cell (Ry a.u.)   227.230714072861     
 
     Expectation value of exp(iGx): (-0.421337711438908,1.570715236967247E-002)
   1.53958300451311     
     Electronic Dipole per cell (Ry a.u.)   11.8103899160783     
     Ionic Dipole per cell (Ry a.u.)   227.230714072861     
Electronic Dipole on Cartesian axes
           1   7.46077598644175     
           2   11.8106358736429     
           3   11.8103893837078     
Ionic Dipole on Cartesian axes
           1   101.151577625544     
           2   227.230714072861     
           3   227.230714072861     

     total cpu time spent up to now is        8.1 secs

     total energy              =    -489.23741961 Ry
     estimated scf accuracy    <       1.20860527 Ry

     iteration #  2     ecut=    60.00 Ry     beta= 0.70
     Davidson diagonalization with overlap
     ethr =  2.32E-03,  avg # of iterations =  4.0
 
     Expectation value of exp(iGx): (-0.148977325471675,2.077891514809168E-002)
   1.00000000000000     
     Electronic Dipole per cell (Ry a.u.)   7.42078557807190     
     Ionic Dipole per cell (Ry a.u.)   101.151577625544     
 
     Expectation value of exp(iGx): (-0.323379619795325,1.200914322987243E-002)
   1.53958300451311     
     Electronic Dipole per cell (Ry a.u.)   11.8109327595323     
     Ionic Dipole per cell (Ry a.u.)   227.230714072861     
 
     Expectation value of exp(iGx): (-0.323388087573613,1.200874849332503E-002)
   1.53958300451311     
     Electronic Dipole per cell (Ry a.u.)   11.8109410913909     
     Ionic Dipole per cell (Ry a.u.)   227.230714072861     
Electronic Dipole on Cartesian axes
           1   7.42078602702503     
           2   11.8109322263457     
           3   11.8109405582048     
Ionic Dipole on Cartesian axes
           1   101.151577625544     
           2   227.230714072861     
           3   227.230714072861     

     total cpu time spent up to now is       12.4 secs

     total energy              =    -489.59741312 Ry
     estimated scf accuracy    <       0.78338430 Ry

     iteration #  3     ecut=    60.00 Ry     beta= 0.70
     Davidson diagonalization with overlap
     ethr =  1.51E-03,  avg # of iterations =  2.0
 
     Expectation value of exp(iGx): (-0.171818052092459,2.469880356872107E-002)
   1.00000000000000     
     Electronic Dipole per cell (Ry a.u.)   7.41043476630580     
     Ionic Dipole per cell (Ry a.u.)   101.151577625544     
 
     Expectation value of exp(iGx): (-0.352265030965458,1.309058377712335E-002)
   1.53958300451311     
     Electronic Dipole per cell (Ry a.u.)   11.8108384817923     
     Ionic Dipole per cell (Ry a.u.)   227.230714072861     
 
     Expectation value of exp(iGx): (-0.352270929029360,1.308886290747625E-002)
   1.53958300451311     
     Electronic Dipole per cell (Ry a.u.)   11.8108594052204     
     Ionic Dipole per cell (Ry a.u.)   227.230714072861     
Electronic Dipole on Cartesian axes
           1   7.41043521525558     
           2   11.8108379484037     
           3   11.8108588718330     
Ionic Dipole on Cartesian axes
           1   101.151577625544     
           2   227.230714072861     
           3   227.230714072861     

     total cpu time spent up to now is       16.3 secs

     total energy              =    -489.72440753 Ry
     estimated scf accuracy    <       0.01164876 Ry

     iteration #  4     ecut=    60.00 Ry     beta= 0.70
     Davidson diagonalization with overlap
     ethr =  2.24E-05,  avg # of iterations =  5.4
 
     Expectation value of exp(iGx): (-0.193501406343122,2.692922473666443E-002)
   1.00000000000000     
     Electronic Dipole per cell (Ry a.u.)   7.42153442712899     
     Ionic Dipole per cell (Ry a.u.)   101.151577625544     
 
     Expectation value of exp(iGx): (-0.376117093422273,1.398205190894054E-002)
   1.53958300451311     
     Electronic Dipole per cell (Ry a.u.)   11.8107869921008     
     Ionic Dipole per cell (Ry a.u.)   227.230714072861     
 
     Expectation value of exp(iGx): (-0.376117277572021,1.398181920129369E-002)
   1.53958300451311     
     Electronic Dipole per cell (Ry a.u.)   11.8107894118786     
     Ionic Dipole per cell (Ry a.u.)   227.230714072861     
Electronic Dipole on Cartesian axes
           1   7.42153487607646     
           2   11.8107864589379     
           3   11.8107888787159     
Ionic Dipole on Cartesian axes
           1   101.151577625544     
           2   227.230714072861     
           3   227.230714072861     

     total cpu time spent up to now is       21.4 secs

     total energy              =    -489.73984104 Ry
     estimated scf accuracy    <       0.02078563 Ry

     iteration #  5     ecut=    60.00 Ry     beta= 0.70
     Davidson diagonalization with overlap
     ethr =  2.24E-05,  avg # of iterations =  2.0
 
     Expectation value of exp(iGx): (-0.190841956051149,2.635580065977543E-002)
   1.00000000000000     
     Electronic Dipole per cell (Ry a.u.)   7.42411738567175     
     Ionic Dipole per cell (Ry a.u.)   101.151577625544     
 
     Expectation value of exp(iGx): (-0.373102713050424,1.386823816026039E-002)
   1.53958300451311     
     Electronic Dipole per cell (Ry a.u.)   11.8108048626295     
     Ionic Dipole per cell (Ry a.u.)   227.230714072861     
 
     Expectation value of exp(iGx): (-0.373102667323069,1.386834329918197E-002)
   1.53958300451311     
     Electronic Dipole per cell (Ry a.u.)   11.8108037747106     
     Ionic Dipole per cell (Ry a.u.)   227.230714072861     
Electronic Dipole on Cartesian axes
           1   7.42411783461984     
           2   11.8108043295173     
           3   11.8108032415984     
Ionic Dipole on Cartesian axes
           1   101.151577625544     
           2   227.230714072861     
           3   227.230714072861     

     total cpu time spent up to now is       25.2 secs

     total energy              =    -489.73959006 Ry
     estimated scf accuracy    <       0.00367935 Ry

     iteration #  6     ecut=    60.00 Ry     beta= 0.70
     Davidson diagonalization with overlap
     ethr =  7.08E-06,  avg # of iterations =  4.0
 
     Expectation value of exp(iGx): (-0.186674561357365,2.582683733749613E-002)
   1.00000000000000     
     Electronic Dipole per cell (Ry a.u.)   7.42351253039624     
     Ionic Dipole per cell (Ry a.u.)   101.151577625544     
 
     Expectation value of exp(iGx): (-0.368609736603734,1.370220720391464E-002)
   1.53958300451311     
     Electronic Dipole per cell (Ry a.u.)   11.8107948329200     
     Ionic Dipole per cell (Ry a.u.)   227.230714072861     
 
     Expectation value of exp(iGx): (-0.368609814251492,1.370149904971793E-002)
   1.53958300451311     
     Electronic Dipole per cell (Ry a.u.)   11.8108021615718     
     Ionic Dipole per cell (Ry a.u.)   227.230714072861     
Electronic Dipole on Cartesian axes
           1   7.42351297934411     
           2   11.8107942997959     
           3   11.8108016284480     
Ionic Dipole on Cartesian axes
           1   101.151577625544     
           2   227.230714072861     
           3   227.230714072861     

     total cpu time spent up to now is       29.6 secs

     total energy              =    -489.74082831 Ry
     estimated scf accuracy    <       0.00005646 Ry

     iteration #  7     ecut=    60.00 Ry     beta= 0.70
     Davidson diagonalization with overlap
     ethr =  1.09E-07,  avg # of iterations =  2.7
 
     Expectation value of exp(iGx): (-0.186495713033255,2.586671565801701E-002)
   1.00000000000000     
     Electronic Dipole per cell (Ry a.u.)   7.42267238898414     
     Ionic Dipole per cell (Ry a.u.)   101.151577625544     
 
     Expectation value of exp(iGx): (-0.368415530542315,1.369156313910392E-002)
   1.53958300451311     
     Electronic Dipole per cell (Ry a.u.)   11.8108301518571     
     Ionic Dipole per cell (Ry a.u.)   227.230714072861     
 
     Expectation value of exp(iGx): (-0.368415581749322,1.369199281781003E-002)
   1.53958300451311     
     Electronic Dipole per cell (Ry a.u.)   11.8108257404722     
     Ionic Dipole per cell (Ry a.u.)   227.230714072861     
Electronic Dipole on Cartesian axes
           1   7.42267283793312     
           2   11.8108296187148     
           3   11.8108252073297     
Ionic Dipole on Cartesian axes
           1   101.151577625544     
           2   227.230714072861     
           3   227.230714072861     

     total cpu time spent up to now is       33.5 secs

     total energy              =    -489.74081133 Ry
     estimated scf accuracy    <       0.00009284 Ry

     iteration #  8     ecut=    60.00 Ry     beta= 0.70
     Davidson diagonalization with overlap
     ethr =  1.09E-07,  avg # of iterations =  2.0
 
     Expectation value of exp(iGx): (-0.186603233726389,2.590648201889447E-002)
   1.00000000000000     
     Electronic Dipole per cell (Ry a.u.)   7.42234948289645     
     Ionic Dipole per cell (Ry a.u.)   101.151577625544     
 
     Expectation value of exp(iGx): (-0.368548253052047,1.369730574394307E-002)
   1.53958300451311     
     Electronic Dipole per cell (Ry a.u.)   11.8108217998899     
     Ionic Dipole per cell (Ry a.u.)   227.230714072861     
 
     Expectation value of exp(iGx): (-0.368548292933986,1.369746707484066E-002)
   1.53958300451311     
     Electronic Dipole per cell (Ry a.u.)   11.8108201520637     
     Ionic Dipole per cell (Ry a.u.)   227.230714072861     
Electronic Dipole on Cartesian axes
           1   7.42234993184517     
           2   11.8108212667415     
           3   11.8108196189153     
Ionic Dipole on Cartesian axes
           1   101.151577625544     
           2   227.230714072861     
           3   227.230714072861     

     total cpu time spent up to now is       37.0 secs

     total energy              =    -489.74080234 Ry
     estimated scf accuracy    <       0.00003051 Ry

     iteration #  9     ecut=    60.00 Ry     beta= 0.70
     Davidson diagonalization with overlap
     ethr =  5.87E-08,  avg # of iterations =  3.6
 
     Expectation value of exp(iGx): (-0.186820519682187,2.593774998474380E-002)
   1.00000000000000     
     Electronic Dipole per cell (Ry a.u.)   7.42233518548187     
     Ionic Dipole per cell (Ry a.u.)   101.151577625544     
 
     Expectation value of exp(iGx): (-0.368786615250702,1.370628028547396E-002)
   1.53958300451311     
     Electronic Dipole per cell (Ry a.u.)   11.8108206082094     
     Ionic Dipole per cell (Ry a.u.)   227.230714072861     
 
     Expectation value of exp(iGx): (-0.368786650303387,1.370628326334677E-002)
   1.53958300451311     
     Electronic Dipole per cell (Ry a.u.)   11.8108205909524     
     Ionic Dipole per cell (Ry a.u.)   227.230714072861     
Electronic Dipole on Cartesian axes
           1   7.42233563443057     
           2   11.8108200750607     
           3   11.8108200578037     
Ionic Dipole on Cartesian axes
           1   101.151577625544     
           2   227.230714072861     
           3   227.230714072861     

     total cpu time spent up to now is       41.1 secs

     total energy              =    -489.74080631 Ry
     estimated scf accuracy    <       0.00000146 Ry

     iteration # 10     ecut=    60.00 Ry     beta= 0.70
     Davidson diagonalization with overlap
     ethr =  2.82E-09,  avg # of iterations =  2.9
 
     Expectation value of exp(iGx): (-0.186891932868585,2.593904082775959E-002)
   1.00000000000000     
     Electronic Dipole per cell (Ry a.u.)   7.42244705780097     
     Ionic Dipole per cell (Ry a.u.)   101.151577625544     
 
     Expectation value of exp(iGx): (-0.368862046613657,1.370912581533747E-002)
   1.53958300451311     
     Electronic Dipole per cell (Ry a.u.)   11.8108201750305     
     Ionic Dipole per cell (Ry a.u.)   227.230714072861     
 
     Expectation value of exp(iGx): (-0.368862046080391,1.370917555901503E-002)
   1.53958300451311     
     Electronic Dipole per cell (Ry a.u.)   11.8108196624717     
     Ionic Dipole per cell (Ry a.u.)   227.230714072861     
Electronic Dipole on Cartesian axes
           1   7.42244750674965     
           2   11.8108196418840     
           3   11.8108191293252     
Ionic Dipole on Cartesian axes
           1   101.151577625544     
           2   227.230714072861     
           3   227.230714072861     

     total cpu time spent up to now is       45.2 secs

     total energy              =    -489.74080664 Ry
     estimated scf accuracy    <       0.00000003 Ry

     iteration # 11     ecut=    60.00 Ry     beta= 0.70
     Davidson diagonalization with overlap
     ethr =  5.25E-11,  avg # of iterations =  4.8
 
     Expectation value of exp(iGx): (-0.186910136077891,2.593845039382352E-002)
   1.00000000000000     
     Electronic Dipole per cell (Ry a.u.)   7.42248748708966     
     Ionic Dipole per cell (Ry a.u.)   101.151577625544     
 
     Expectation value of exp(iGx): (-0.368880495826714,1.371023142568263E-002)
   1.53958300451311     
     Electronic Dipole per cell (Ry a.u.)   11.8108158500434     
     Ionic Dipole per cell (Ry a.u.)   227.230714072861     
 
     Expectation value of exp(iGx): (-0.368880503334796,1.371014648934631E-002)
   1.53958300451311     
     Electronic Dipole per cell (Ry a.u.)   11.8108167277090     
     Ionic Dipole per cell (Ry a.u.)   227.230714072861     
Electronic Dipole on Cartesian axes
           1   7.42248793603820     
           2   11.8108153168980     
           3   11.8108161945636     
Ionic Dipole on Cartesian axes
           1   101.151577625544     
           2   227.230714072861     
           3   227.230714072861     

     total cpu time spent up to now is       50.1 secs

     End of self-consistent calculation

          k = 0.0000 0.0000 0.0000 (  3065 PWs)   bands (ev):

   -14.2932 -14.1202 -13.9848 -13.9827 -13.9827 -13.9268 -13.9123 -13.8850
   -13.8850 -13.8831 -10.2577  -7.4322  -7.4322  -6.7328   0.4408   5.2213
     5.2213   5.7515   6.1907   7.1751   8.0735   8.5179   8.5179   9.7112
     9.7112  10.4938

          k =-0.0000 0.0000 0.1624 (  3089 PWs)   bands (ev):

   -14.2697 -14.1424 -13.9909 -13.9837 -13.9817 -13.9438 -13.9127 -13.9019
   -13.8899 -13.8887  -9.9902  -8.1844  -7.2379  -6.5537   0.9303   4.0053
     5.5906   5.9910   6.7215   7.4975   7.7455   8.5167   8.5744   8.7008
     9.6885  10.1251

          k =-0.0000 0.0000 0.3248 (  3068 PWs)   bands (ev):

   -14.2030 -14.2030 -13.9849 -13.9849 -13.9680 -13.9680 -13.8976 -13.8975
   -13.8876 -13.8876  -9.2359  -9.2358  -6.8044  -6.8043   2.2559   2.2559
     6.6495   6.6497   6.7096   6.7099   7.7616   7.7617   8.6912   8.6914
     9.6947   9.6949

          k =-0.0000 0.0000 0.4871 (  3089 PWs)   bands (ev):

   -14.2697 -14.1424 -13.9909 -13.9837 -13.9817 -13.9438 -13.9127 -13.9019
   -13.8899 -13.8887  -9.9902  -8.1844  -7.2379  -6.5537   0.9303   4.0053
     5.5906   5.9910   6.7215   7.4975   7.7455   8.5167   8.5744   8.7008
     9.6885  10.1251

          k =-0.0000 0.1624 0.0000 (  3089 PWs)   bands (ev):

   -14.2697 -14.1424 -13.9909 -13.9837 -13.9817 -13.9438 -13.9127 -13.9019
   -13.8899 -13.8887  -9.9902  -8.1844  -7.2379  -6.5537   0.9303   4.0053
     5.5906   5.9910   6.7215   7.4975   7.7455   8.5167   8.5744   8.7008
     9.6885  10.1251

          k =-0.0000 0.1624 0.1624 (  3093 PWs)   bands (ev):

   -14.2540 -14.1648 -13.9902 -13.9837 -13.9813 -13.9542 -13.9114 -13.9024
   -13.8926 -13.8880  -9.7261  -8.2372  -7.5335  -6.6618   1.4739   3.9790
     5.3092   6.1994   7.0912   7.2987   7.5224   8.3135   8.4669   8.7147
     9.4571   9.8593

          k =-0.0000 0.1624 0.3248 (  3076 PWs)   bands (ev):

   -14.2103 -14.2103 -13.9857 -13.9857 -13.9711 -13.9710 -13.8958 -13.8958
   -13.8943 -13.8943  -9.0113  -9.0112  -7.1619  -7.1618   2.7803   2.7804
     6.2258   6.2260   6.7386   6.7388   7.9460   7.9462   8.5636   8.5638
     9.4311   9.4312

          k =-0.0000 0.1624 0.4871 (  3093 PWs)   bands (ev):

   -14.2540 -14.1648 -13.9902 -13.9837 -13.9813 -13.9542 -13.9114 -13.9023
   -13.8926 -13.8880  -9.7261  -8.2372  -7.5335  -6.6618   1.4739   3.9790
     5.3092   6.1994   7.0912   7.2987   7.5224   8.3134   8.4670   8.7147
     9.4572   9.8593

          k =-0.0000 0.3248 0.0000 (  3068 PWs)   bands (ev):

   -14.2030 -14.2030 -13.9849 -13.9849 -13.9680 -13.9680 -13.8976 -13.8975
   -13.8876 -13.8876  -9.2359  -9.2358  -6.8044  -6.8043   2.2559   2.2559
     6.6495   6.6497   6.7096   6.7099   7.7616   7.7617   8.6912   8.6914
     9.6947   9.6949

          k =-0.0000 0.3248 0.1624 (  3076 PWs)   bands (ev):

   -14.2103 -14.2103 -13.9857 -13.9857 -13.9711 -13.9710 -13.8958 -13.8958
   -13.8943 -13.8943  -9.0113  -9.0112  -7.1619  -7.1618   2.7803   2.7804
     6.2258   6.2260   6.7386   6.7388   7.9460   7.9462   8.5636   8.5638
     9.4311   9.4311

          k =-0.0000 0.3248 0.3248 (  3076 PWs)   bands (ev):

   -14.2184 -14.2183 -13.9893 -13.9893 -13.9768 -13.9767 -13.8932 -13.8932
   -13.8905 -13.8905  -8.6657  -8.6656  -7.6321  -7.6321   3.4804   3.4805
     5.5642   5.5642   6.8413   6.8414   8.2304   8.2305   8.4169   8.4169
     9.0721   9.0722

          k =-0.0000 0.3248 0.4871 (  3076 PWs)   bands (ev):

   -14.2103 -14.2103 -13.9857 -13.9857 -13.9711 -13.9710 -13.8958 -13.8958
   -13.8943 -13.8943  -9.0113  -9.0112  -7.1619  -7.1618   2.7803   2.7804
     6.2258   6.2260   6.7386   6.7388   7.9460   7.9462   8.5636   8.5638
     9.4311   9.4311

          k =-0.0000 0.4871 0.0000 (  3089 PWs)   bands (ev):

   -14.2697 -14.1424 -13.9909 -13.9837 -13.9817 -13.9438 -13.9127 -13.9019
   -13.8899 -13.8887  -9.9902  -8.1844  -7.2379  -6.5537   0.9303   4.0053
     5.5906   5.9910   6.7215   7.4975   7.7455   8.5167   8.5744   8.7008
     9.6885  10.1251

          k =-0.0000 0.4871 0.1624 (  3093 PWs)   bands (ev):

   -14.2540 -14.1648 -13.9902 -13.9837 -13.9813 -13.9542 -13.9114 -13.9023
   -13.8926 -13.8880  -9.7261  -8.2372  -7.5335  -6.6618   1.4739   3.9790
     5.3092   6.1994   7.0912   7.2987   7.5224   8.3134   8.4670   8.7147
     9.4572   9.8593

          k =-0.0000 0.4871 0.3248 (  3076 PWs)   bands (ev):

   -14.2103 -14.2103 -13.9857 -13.9857 -13.9711 -13.9710 -13.8958 -13.8958
   -13.8943 -13.8943  -9.0113  -9.0112  -7.1619  -7.1618   2.7803   2.7804
     6.2258   6.2260   6.7386   6.7388   7.9460   7.9462   8.5636   8.5638
     9.4311   9.4312

          k =-0.0000 0.4871 0.4871 (  3093 PWs)   bands (ev):

   -14.2540 -14.1648 -13.9902 -13.9837 -13.9813 -13.9542 -13.9114 -13.9024
   -13.8926 -13.8880  -9.7261  -8.2372  -7.5335  -6.6618   1.4739   3.9790
     5.3092   6.1994   7.0912   7.2987   7.5224   8.3135   8.4669   8.7147
     9.4571   9.8593

          k = 0.1667-0.0000-0.0000 (  3097 PWs)   bands (ev):

   -14.2385 -14.0654 -14.0547 -14.0547 -13.9707 -13.9287 -13.9112 -13.9112
   -13.9094 -13.8818  -9.9815  -7.1903  -7.1903  -6.7908   0.4083   5.2509
     5.5138   5.5138   5.9989   6.4699   7.1323   7.4015   7.4015   9.6085
     9.6085  10.2354

          k = 0.1667 0.0000 0.1624 (  3079 PWs)   bands (ev):

   -14.2178 -14.1038 -14.0484 -14.0394 -13.9641 -13.9359 -13.9106 -13.9066
   -13.9049 -13.8840  -9.7205  -7.9737  -7.0284  -6.5242   0.9560   4.2033
     4.6778   5.4783   6.4735   6.8589   7.3675   7.7539   7.9896   9.1443
     9.5439  10.0466

          k = 0.1667 0.0000 0.3248 (  3088 PWs)   bands (ev):

   -14.1672 -14.1672 -14.0440 -14.0440 -13.9532 -13.9532 -13.9101 -13.9100
   -13.8943 -13.8943  -8.9895  -8.9894  -6.6827  -6.6826   2.3714   2.3715
     4.7858   4.7861   7.0364   7.0366   8.0813   8.0813   8.3564   8.3565
     9.5593   9.5595

          k = 0.1667 0.0000 0.4871 (  3079 PWs)   bands (ev):

   -14.2178 -14.1038 -14.0484 -14.0394 -13.9641 -13.9359 -13.9106 -13.9067
   -13.9049 -13.8840  -9.7205  -7.9737  -7.0284  -6.5242   0.9560   4.2033
     4.6778   5.4783   6.4735   6.8589   7.3675   7.7539   7.9896   9.1443
     9.5439  10.0466

          k = 0.1667 0.1624 0.0000 (  3079 PWs)   bands (ev):

   -14.2178 -14.1038 -14.0484 -14.0394 -13.9641 -13.9359 -13.9106 -13.9066
   -13.9049 -13.8840  -9.7205  -7.9737  -7.0284  -6.5242   0.9560   4.2033
     4.6778   5.4783   6.4735   6.8589   7.3675   7.7539   7.9896   9.1443
     9.5439  10.0466

          k = 0.1667 0.1624 0.1624 (  3076 PWs)   bands (ev):

   -14.2014 -14.1181 -14.0537 -14.0381 -13.9627 -13.9411 -13.9108 -13.9045
   -13.9007 -13.8869  -9.4669  -8.0646  -7.2850  -6.5832   1.4601   3.4778
     5.3575   5.6076   6.0276   6.6628   7.3193   7.9031   8.4269   8.8765
     9.4312   9.9503

          k = 0.1667 0.1624 0.3248 (  3070 PWs)   bands (ev):

   -14.1612 -14.1612 -14.0463 -14.0463 -13.9557 -13.9557 -13.9077 -13.9077
   -13.8899 -13.8899  -8.7875  -8.7873  -6.9866  -6.9865   2.5597   2.5598
     5.1842   5.1845   6.7240   6.7241   7.6057   7.6061   8.6280   8.6281
     9.5404   9.5405

          k = 0.1667 0.1624 0.4871 (  3076 PWs)   bands (ev):

   -14.2014 -14.1181 -14.0537 -14.0381 -13.9627 -13.9411 -13.9108 -13.9045
   -13.9007 -13.8869  -9.4669  -8.0646  -7.2850  -6.5832   1.4601   3.4778
     5.3575   5.6076   6.0276   6.6628   7.3193   7.9031   8.4268   8.8764
     9.4312   9.9503

          k = 0.1667 0.3248 0.0000 (  3088 PWs)   bands (ev):

   -14.1672 -14.1672 -14.0441 -14.0440 -13.9532 -13.9532 -13.9101 -13.9100
   -13.8943 -13.8943  -8.9895  -8.9894  -6.6827  -6.6826   2.3714   2.3715
     4.7858   4.7861   7.0364   7.0366   8.0813   8.0813   8.3564   8.3565
     9.5593   9.5595

          k = 0.1667 0.3248 0.1624 (  3070 PWs)   bands (ev):

   -14.1612 -14.1612 -14.0463 -14.0463 -13.9557 -13.9557 -13.9077 -13.9077
   -13.8899 -13.8899  -8.7875  -8.7873  -6.9866  -6.9865   2.5597   2.5598
     5.1842   5.1845   6.7240   6.7241   7.6057   7.6061   8.6280   8.6281
     9.5404   9.5405

          k = 0.1667 0.3248 0.3248 (  3056 PWs)   bands (ev):

   -14.1560 -14.1560 -14.0525 -14.0525 -13.9584 -13.9584 -13.9069 -13.9068
   -13.8873 -13.8873  -8.4946  -8.4944  -7.3774  -7.3774   2.7494   2.7495
     5.7807   5.7807   6.6666   6.6667   6.7366   6.7372   9.1512   9.1513
     9.1884   9.1884

          k = 0.1667 0.3248 0.4871 (  3070 PWs)   bands (ev):

   -14.1612 -14.1612 -14.0463 -14.0463 -13.9557 -13.9557 -13.9077 -13.9077
   -13.8899 -13.8899  -8.7874  -8.7873  -6.9866  -6.9864   2.5597   2.5598
     5.1843   5.1844   6.7240   6.7242   7.6056   7.6062   8.6278   8.6282
     9.5404   9.5405

          k = 0.1667 0.4871 0.0000 (  3079 PWs)   bands (ev):

   -14.2178 -14.1038 -14.0484 -14.0394 -13.9641 -13.9359 -13.9106 -13.9067
   -13.9049 -13.8840  -9.7205  -7.9737  -7.0284  -6.5242   0.9560   4.2033
     4.6778   5.4783   6.4735   6.8589   7.3675   7.7539   7.9896   9.1443
     9.5439  10.0466

          k = 0.1667 0.4871 0.1624 (  3076 PWs)   bands (ev):

   -14.2014 -14.1181 -14.0537 -14.0381 -13.9627 -13.9411 -13.9108 -13.9045
   -13.9007 -13.8869  -9.4669  -8.0646  -7.2850  -6.5832   1.4601   3.4778
     5.3575   5.6076   6.0276   6.6628   7.3193   7.9031   8.4268   8.8764
     9.4312   9.9503

          k = 0.1667 0.4871 0.3248 (  3070 PWs)   bands (ev):

   -14.1612 -14.1612 -14.0463 -14.0463 -13.9557 -13.9557 -13.9077 -13.9077
   -13.8899 -13.8899  -8.7874  -8.7873  -6.9866  -6.9865   2.5597   2.5598
     5.1843   5.1844   6.7240   6.7242   7.6056   7.6062   8.6278   8.6282
     9.5404   9.5405

          k = 0.1667 0.4871 0.4871 (  3076 PWs)   bands (ev):

   -14.2014 -14.1181 -14.0537 -14.0381 -13.9627 -13.9411 -13.9108 -13.9045
   -13.9007 -13.8869  -9.4669  -8.0646  -7.2850  -6.5832   1.4601   3.4778
     5.3575   5.6076   6.0276   6.6628   7.3193   7.9031   8.4269   8.8764
     9.4312   9.9503

          k = 0.3333-0.0000-0.0000 (  3094 PWs)   bands (ev):

   -14.1813 -14.1813 -14.1188 -13.9912 -13.9337 -13.9337 -13.9281 -13.9152
   -13.9050 -13.8844  -9.1862  -7.1651  -6.6765  -6.6765   0.4864   3.3708
     4.9277   5.5988   5.5988   6.3703   6.3703   6.4045   7.2488   9.1449
     9.1449   9.4643

          k = 0.3333 0.0000 0.1624 (  3081 PWs)   bands (ev):

   -14.2124 -14.2017 -14.0626 -13.9882 -13.9371 -13.9352 -13.9165 -13.9125
   -13.8973 -13.8833  -8.9722  -7.6354  -6.6127  -6.5298   0.9712   3.0491
     4.0838   4.6403   5.6116   5.6632   7.4180   7.6466   7.8488   9.0387
     9.1921   9.5425

          k = 0.3333 0.0000 0.3248 (  3084 PWs)   bands (ev):

   -14.2240 -14.2240 -14.0102 -14.0102 -13.9361 -13.9361 -13.9149 -13.9149
   -13.8909 -13.8909  -8.3881  -8.3880  -6.5080  -6.5079   2.1274   2.1276
     3.6754   3.6755   5.6230   5.6233   8.1303   8.1305   8.7362   8.7363
     9.3411   9.3412

          k = 0.3333 0.0000 0.4871 (  3081 PWs)   bands (ev):

   -14.2124 -14.2017 -14.0626 -13.9882 -13.9371 -13.9352 -13.9165 -13.9125
   -13.8973 -13.8833  -8.9722  -7.6354  -6.6127  -6.5298   0.9712   3.0491
     4.0838   4.6403   5.6116   5.6632   7.4180   7.6466   7.8488   9.0387
     9.1921   9.5425

          k = 0.3333 0.1624 0.0000 (  3081 PWs)   bands (ev):

   -14.2124 -14.2017 -14.0626 -13.9882 -13.9371 -13.9352 -13.9165 -13.9125
   -13.8973 -13.8833  -8.9722  -7.6354  -6.6127  -6.5298   0.9712   3.0491
     4.0838   4.6403   5.6116   5.6632   7.4180   7.6466   7.8488   9.0387
     9.1921   9.5425

          k = 0.3333 0.1624 0.1624 (  3084 PWs)   bands (ev):

   -14.2252 -14.1828 -14.0728 -13.9940 -13.9363 -13.9348 -13.9217 -13.9123
   -13.8912 -13.8881  -8.7697  -7.7608  -6.7555  -6.5002   1.1146   2.4291
     4.0010   5.1198   5.2108   6.3934   6.4875   8.2173   8.4500   8.9681
     9.2107   9.5958

          k = 0.3333 0.1624 0.3248 (  3078 PWs)   bands (ev):

   -14.2073 -14.2073 -14.0313 -14.0313 -13.9351 -13.9350 -13.9155 -13.9155
   -13.8882 -13.8882  -8.2553  -8.2551  -6.6547  -6.6547   1.5782   1.5783
     4.6551   4.6554   5.3659   5.3661   8.0419   8.0426   8.7958   8.7958
     9.4079   9.4080

          k = 0.3333 0.1624 0.4871 (  3084 PWs)   bands (ev):

   -14.2252 -14.1828 -14.0728 -13.9940 -13.9363 -13.9348 -13.9217 -13.9123
   -13.8912 -13.8881  -8.7697  -7.7608  -6.7554  -6.5002   1.1146   2.4291
     4.0010   5.1198   5.2108   6.3934   6.4875   8.2173   8.4500   8.9681
     9.2107   9.5958

          k = 0.3333 0.3248 0.0000 (  3084 PWs)   bands (ev):

   -14.2240 -14.2240 -14.0102 -14.0102 -13.9361 -13.9361 -13.9149 -13.9149
   -13.8909 -13.8909  -8.3881  -8.3880  -6.5080  -6.5079   2.1274   2.1276
     3.6754   3.6755   5.6230   5.6233   8.1303   8.1305   8.7362   8.7363
     9.3411   9.3412

          k = 0.3333 0.3248 0.1624 (  3078 PWs)   bands (ev):

   -14.2073 -14.2073 -14.0313 -14.0313 -13.9351 -13.9350 -13.9155 -13.9155
   -13.8882 -13.8882  -8.2553  -8.2551  -6.6547  -6.6547   1.5782   1.5783
     4.6551   4.6554   5.3659   5.3661   8.0419   8.0426   8.7958   8.7958
     9.4079   9.4080

          k = 0.3333 0.3248 0.3248 (  3064 PWs)   bands (ev):

   -14.1816 -14.1816 -14.0595 -14.0594 -13.9316 -13.9316 -13.9168 -13.9168
   -13.8833 -13.8833  -8.0919  -8.0917  -6.8326  -6.8325   1.2668   1.2668
     4.7484   4.7485   6.5950   6.5950   6.8228   6.8238   9.3081   9.3081
     9.3120   9.3120

          k = 0.3333 0.3248 0.4871 (  3078 PWs)   bands (ev):

   -14.2073 -14.2073 -14.0313 -14.0312 -13.9351 -13.9350 -13.9155 -13.9155
   -13.8882 -13.8882  -8.2553  -8.2552  -6.6547  -6.6546   1.5782   1.5783
     4.6552   4.6553   5.3659   5.3660   8.0419   8.0426   8.7956   8.7959
     9.4079   9.4080

          k = 0.3333 0.4871 0.0000 (  3081 PWs)   bands (ev):

   -14.2124 -14.2017 -14.0626 -13.9882 -13.9371 -13.9352 -13.9165 -13.9125
   -13.8973 -13.8833  -8.9722  -7.6354  -6.6127  -6.5298   0.9712   3.0491
     4.0838   4.6403   5.6116   5.6632   7.4180   7.6466   7.8488   9.0387
     9.1921   9.5425

          k = 0.3333 0.4871 0.1624 (  3084 PWs)   bands (ev):

   -14.2252 -14.1828 -14.0728 -13.9940 -13.9363 -13.9348 -13.9217 -13.9123
   -13.8912 -13.8881  -8.7697  -7.7608  -6.7554  -6.5002   1.1146   2.4291
     4.0010   5.1198   5.2108   6.3934   6.4875   8.2173   8.4500   8.9681
     9.2107   9.5958

          k = 0.3333 0.4871 0.3248 (  3078 PWs)   bands (ev):

   -14.2073 -14.2073 -14.0313 -14.0312 -13.9351 -13.9350 -13.9155 -13.9155
   -13.8882 -13.8882  -8.2553  -8.2552  -6.6547  -6.6546   1.5782   1.5783
     4.6552   4.6553   5.3659   5.3660   8.0419   8.0426   8.7956   8.7959
     9.4079   9.4080

          k = 0.3333 0.4871 0.4871 (  3084 PWs)   bands (ev):

   -14.2252 -14.1828 -14.0728 -13.9940 -13.9363 -13.9348 -13.9217 -13.9123
   -13.8912 -13.8881  -8.7697  -7.7608  -6.7555  -6.5002   1.1146   2.4291
     4.0010   5.1198   5.2108   6.3934   6.4875   8.2173   8.4500   8.9681
     9.2107   9.5958

          k = 0.5000-0.0000-0.0000 (  3046 PWs)   bands (ev):

   -14.2325 -14.2325 -14.0204 -14.0204 -13.9348 -13.9347 -13.8856 -13.8856
   -13.8835 -13.8835  -8.0821  -8.0818  -6.3969  -6.3969   1.3803   1.3807
     4.8969   4.8969   5.4847   5.4849   6.9224   6.9224   8.3599   8.3600
     8.6932   8.6932

          k = 0.5000-0.0000 0.1624 (  3068 PWs)   bands (ev):

   -14.2592 -14.2592 -13.9980 -13.9980 -13.9410 -13.9410 -13.8876 -13.8876
   -13.8833 -13.8833  -8.0332  -8.0330  -6.4524  -6.4524   1.4980   1.4983
     4.2884   4.2885   5.0785   5.0786   7.7612   7.7614   8.5644   8.5645
     8.9121   8.9122

          k = 0.5000 0.0000 0.3248 (  3088 PWs)   bands (ev):

   -14.2807 -14.2807 -13.9833 -13.9833 -13.9433 -13.9433 -13.8914 -13.8914
   -13.8827 -13.8827  -7.9800  -7.9800  -6.5118  -6.5118   1.6749   1.6749
     3.6108   3.6108   5.0599   5.0600   7.8631   7.8632   9.1399   9.1399
     9.1716   9.1717

          k = 0.5000 0.0000 0.4871 (  3068 PWs)   bands (ev):

   -14.2592 -14.2592 -13.9980 -13.9980 -13.9410 -13.9410 -13.8876 -13.8876
   -13.8833 -13.8833  -8.0332  -8.0330  -6.4524  -6.4524   1.4980   1.4983
     4.2884   4.2885   5.0785   5.0786   7.7612   7.7614   8.5644   8.5645
     8.9121   8.9122

          k = 0.5000 0.1624-0.0000 (  3068 PWs)   bands (ev):

   -14.2592 -14.2592 -13.9980 -13.9980 -13.9410 -13.9410 -13.8876 -13.8876
   -13.8833 -13.8833  -8.0332  -8.0330  -6.4524  -6.4524   1.4980   1.4983
     4.2884   4.2885   5.0785   5.0786   7.7612   7.7614   8.5644   8.5645
     8.9121   8.9122

          k = 0.5000 0.1624 0.1624 (  3080 PWs)   bands (ev):

   -14.2808 -14.2405 -14.0259 -13.9795 -13.9458 -13.9429 -13.8890 -13.8871
   -13.8844 -13.8838  -7.9860  -7.9678  -6.5031  -6.4678   0.8758   1.6794
     3.9826   4.3955   4.4758   6.4102   6.9552   8.6673   8.6682   8.7170
     8.8688   9.1624

          k = 0.5000 0.1624 0.3248 (  3088 PWs)   bands (ev):

   -14.2651 -14.2651 -14.0022 -14.0022 -13.9470 -13.9470 -13.8897 -13.8897
   -13.8859 -13.8858  -7.9166  -7.9164  -6.5233  -6.5233   0.9782   0.9782
     4.1531   4.1532   5.3139   5.3142   8.1368   8.1375   8.9215   8.9216
     9.2818   9.2819

          k = 0.5000 0.1624 0.4871 (  3080 PWs)   bands (ev):

   -14.2808 -14.2405 -14.0259 -13.9795 -13.9458 -13.9429 -13.8890 -13.8871
   -13.8844 -13.8838  -7.9859  -7.9678  -6.5031  -6.4677   0.8758   1.6794
     3.9826   4.3955   4.4758   6.4102   6.9552   8.6674   8.6681   8.7170
     8.8687   9.1625

          k = 0.5000 0.3248 0.0000 (  3088 PWs)   bands (ev):

   -14.2807 -14.2807 -13.9833 -13.9833 -13.9433 -13.9433 -13.8914 -13.8914
   -13.8827 -13.8827  -7.9800  -7.9800  -6.5118  -6.5118   1.6749   1.6749
     3.6108   3.6108   5.0599   5.0600   7.8631   7.8632   9.1399   9.1399
     9.1716   9.1717

          k = 0.5000 0.3248 0.1624 (  3088 PWs)   bands (ev):

   -14.2651 -14.2651 -14.0022 -14.0022 -13.9470 -13.9470 -13.8897 -13.8897
   -13.8859 -13.8858  -7.9166  -7.9164  -6.5233  -6.5233   0.9782   0.9782
     4.1531   4.1532   5.3139   5.3142   8.1368   8.1375   8.9215   8.9216
     9.2818   9.2819

          k = 0.5000 0.3248 0.3248 (  3112 PWs)   bands (ev):

   -14.2508 -14.2508 -14.0326 -14.0325 -13.9524 -13.9524 -13.8911 -13.8910
   -13.8884 -13.8883  -7.8502  -7.8499  -6.5371  -6.5371   0.5287   0.5287
     4.0048   4.0048   6.9302   6.9313   7.0111   7.0111   9.1826   9.1826
     9.3876   9.3876

          k = 0.5000 0.3248 0.4871 (  3088 PWs)   bands (ev):

   -14.2651 -14.2651 -14.0022 -14.0022 -13.9470 -13.9470 -13.8897 -13.8897
   -13.8859 -13.8858  -7.9166  -7.9164  -6.5233  -6.5233   0.9782   0.9782
     4.1531   4.1532   5.3139   5.3142   8.1368   8.1375   8.9215   8.9216
     9.2818   9.2819

          k = 0.5000 0.4871 0.0000 (  3068 PWs)   bands (ev):

   -14.2592 -14.2592 -13.9980 -13.9980 -13.9410 -13.9410 -13.8876 -13.8876
   -13.8833 -13.8833  -8.0332  -8.0330  -6.4524  -6.4524   1.4980   1.4983
     4.2884   4.2885   5.0785   5.0786   7.7612   7.7614   8.5644   8.5645
     8.9121   8.9122

          k = 0.5000 0.4871 0.1624 (  3080 PWs)   bands (ev):

   -14.2808 -14.2405 -14.0259 -13.9795 -13.9458 -13.9429 -13.8890 -13.8871
   -13.8844 -13.8838  -7.9859  -7.9678  -6.5031  -6.4677   0.8758   1.6794
     3.9826   4.3955   4.4758   6.4102   6.9552   8.6674   8.6681   8.7170
     8.8687   9.1625

          k = 0.5000 0.4871 0.3248 (  3088 PWs)   bands (ev):

   -14.2651 -14.2651 -14.0022 -14.0022 -13.9470 -13.9470 -13.8897 -13.8897
   -13.8859 -13.8858  -7.9166  -7.9164  -6.5233  -6.5233   0.9782   0.9782
     4.1531   4.1532   5.3139   5.3142   8.1368   8.1375   8.9215   8.9216
     9.2818   9.2819

          k = 0.5000 0.4871 0.4871 (  3080 PWs)   bands (ev):

   -14.2808 -14.2405 -14.0259 -13.9795 -13.9458 -13.9429 -13.8890 -13.8871
   -13.8844 -13.8838  -7.9860  -7.9678  -6.5031  -6.4678   0.8758   1.6794
     3.9826   4.3955   4.4758   6.4102   6.9552   8.6673   8.6682   8.7170
     8.8688   9.1624

          k = 0.6667-0.0000-0.0000 (  3094 PWs)   bands (ev):

   -14.1813 -14.1813 -14.1188 -13.9912 -13.9337 -13.9337 -13.9281 -13.9152
   -13.9050 -13.8844  -9.1862  -7.1651  -6.6765  -6.6765   0.4864   3.3708
     4.9277   5.5988   5.5988   6.3703   6.3703   6.4045   7.2488   9.1449
     9.1449   9.4643

          k = 0.6667-0.0000 0.1624 (  3081 PWs)   bands (ev):

   -14.2124 -14.2017 -14.0626 -13.9882 -13.9371 -13.9352 -13.9165 -13.9125
   -13.8973 -13.8833  -8.9722  -7.6354  -6.6127  -6.5298   0.9712   3.0491
     4.0838   4.6403   5.6116   5.6632   7.4180   7.6466   7.8488   9.0387
     9.1921   9.5425

          k = 0.6667 0.0000 0.3248 (  3084 PWs)   bands (ev):

   -14.2240 -14.2240 -14.0102 -14.0102 -13.9361 -13.9361 -13.9149 -13.9149
   -13.8909 -13.8909  -8.3881  -8.3880  -6.5080  -6.5079   2.1274   2.1276
     3.6754   3.6755   5.6230   5.6233   8.1303   8.1305   8.7362   8.7363
     9.3411   9.3412

          k = 0.6667 0.0000 0.4871 (  3081 PWs)   bands (ev):

   -14.2124 -14.2017 -14.0626 -13.9882 -13.9371 -13.9352 -13.9165 -13.9125
   -13.8973 -13.8833  -8.9722  -7.6354  -6.6127  -6.5298   0.9712   3.0491
     4.0838   4.6403   5.6116   5.6632   7.4180   7.6466   7.8488   9.0387
     9.1921   9.5425

          k = 0.6667 0.1624-0.0000 (  3081 PWs)   bands (ev):

   -14.2124 -14.2017 -14.0626 -13.9882 -13.9371 -13.9352 -13.9165 -13.9125
   -13.8973 -13.8833  -8.9722  -7.6354  -6.6127  -6.5298   0.9712   3.0491
     4.0838   4.6403   5.6116   5.6632   7.4180   7.6466   7.8488   9.0387
     9.1921   9.5425

          k = 0.6667 0.1624 0.1624 (  3084 PWs)   bands (ev):

   -14.2252 -14.1828 -14.0728 -13.9940 -13.9363 -13.9348 -13.9217 -13.9123
   -13.8912 -13.8881  -8.7697  -7.7608  -6.7555  -6.5002   1.1146   2.4291
     4.0010   5.1198   5.2108   6.3934   6.4875   8.2173   8.4500   8.9681
     9.2107   9.5958

          k = 0.6667 0.1624 0.3248 (  3078 PWs)   bands (ev):

   -14.2073 -14.2073 -14.0313 -14.0312 -13.9351 -13.9350 -13.9155 -13.9155
   -13.8882 -13.8882  -8.2553  -8.2552  -6.6547  -6.6546   1.5782   1.5783
     4.6552   4.6553   5.3659   5.3660   8.0419   8.0426   8.7956   8.7959
     9.4079   9.4080

          k = 0.6667 0.1624 0.4871 (  3084 PWs)   bands (ev):

   -14.2252 -14.1828 -14.0728 -13.9940 -13.9363 -13.9348 -13.9217 -13.9123
   -13.8912 -13.8881  -8.7697  -7.7608  -6.7554  -6.5002   1.1146   2.4291
     4.0010   5.1198   5.2108   6.3934   6.4875   8.2173   8.4500   8.9681
     9.2107   9.5958

          k = 0.6667 0.3248 0.0000 (  3084 PWs)   bands (ev):

   -14.2240 -14.2240 -14.0102 -14.0102 -13.9361 -13.9361 -13.9149 -13.9149
   -13.8909 -13.8909  -8.3881  -8.3880  -6.5080  -6.5079   2.1274   2.1276
     3.6754   3.6755   5.6230   5.6233   8.1303   8.1305   8.7362   8.7363
     9.3411   9.3412

          k = 0.6667 0.3248 0.1624 (  3078 PWs)   bands (ev):

   -14.2073 -14.2073 -14.0313 -14.0312 -13.9351 -13.9350 -13.9155 -13.9155
   -13.8882 -13.8882  -8.2553  -8.2552  -6.6547  -6.6546   1.5782   1.5783
     4.6552   4.6553   5.3659   5.3660   8.0419   8.0426   8.7956   8.7959
     9.4079   9.4080

          k = 0.6667 0.3248 0.3248 (  3064 PWs)   bands (ev):

   -14.1816 -14.1816 -14.0595 -14.0594 -13.9316 -13.9316 -13.9168 -13.9168
   -13.8833 -13.8833  -8.0919  -8.0917  -6.8326  -6.8325   1.2668   1.2668
     4.7484   4.7485   6.5950   6.5950   6.8228   6.8238   9.3081   9.3081
     9.3120   9.3120

          k = 0.6667 0.3248 0.4871 (  3078 PWs)   bands (ev):

   -14.2073 -14.2073 -14.0313 -14.0313 -13.9351 -13.9350 -13.9155 -13.9155
   -13.8882 -13.8882  -8.2553  -8.2551  -6.6547  -6.6547   1.5782   1.5783
     4.6551   4.6554   5.3659   5.3661   8.0419   8.0426   8.7958   8.7958
     9.4079   9.4080

          k = 0.6667 0.4871 0.0000 (  3081 PWs)   bands (ev):

   -14.2124 -14.2017 -14.0626 -13.9882 -13.9371 -13.9352 -13.9165 -13.9125
   -13.8973 -13.8833  -8.9722  -7.6354  -6.6127  -6.5298   0.9712   3.0491
     4.0838   4.6403   5.6116   5.6632   7.4180   7.6466   7.8488   9.0387
     9.1921   9.5425

          k = 0.6667 0.4871 0.1624 (  3084 PWs)   bands (ev):

   -14.2252 -14.1828 -14.0728 -13.9940 -13.9363 -13.9348 -13.9217 -13.9123
   -13.8912 -13.8881  -8.7697  -7.7608  -6.7554  -6.5002   1.1146   2.4291
     4.0010   5.1198   5.2108   6.3934   6.4875   8.2173   8.4500   8.9681
     9.2107   9.5958

          k = 0.6667 0.4871 0.3248 (  3078 PWs)   bands (ev):

   -14.2073 -14.2073 -14.0313 -14.0313 -13.9351 -13.9350 -13.9155 -13.9155
   -13.8882 -13.8882  -8.2553  -8.2551  -6.6547  -6.6547   1.5782   1.5783
     4.6551   4.6554   5.3659   5.3661   8.0419   8.0426   8.7958   8.7958
     9.4079   9.4080

          k = 0.6667 0.4871 0.4871 (  3084 PWs)   bands (ev):

   -14.2252 -14.1828 -14.0728 -13.9940 -13.9363 -13.9348 -13.9217 -13.9123
   -13.8912 -13.8881  -8.7697  -7.7608  -6.7555  -6.5002   1.1146   2.4291
     4.0010   5.1198   5.2108   6.3934   6.4875   8.2173   8.4500   8.9681
     9.2107   9.5958

          k = 0.8333-0.0000-0.0000 (  3097 PWs)   bands (ev):

   -14.2385 -14.0654 -14.0547 -14.0547 -13.9707 -13.9287 -13.9112 -13.9112
   -13.9094 -13.8818  -9.9815  -7.1903  -7.1903  -6.7908   0.4083   5.2509
     5.5138   5.5138   5.9989   6.4699   7.1323   7.4015   7.4015   9.6085
     9.6085  10.2354

          k = 0.8333-0.0000 0.1624 (  3079 PWs)   bands (ev):

   -14.2178 -14.1038 -14.0484 -14.0394 -13.9641 -13.9359 -13.9106 -13.9067
   -13.9049 -13.8840  -9.7205  -7.9737  -7.0284  -6.5242   0.9560   4.2033
     4.6778   5.4783   6.4735   6.8589   7.3675   7.7539   7.9896   9.1443
     9.5439  10.0466

          k = 0.8333 0.0000 0.3248 (  3088 PWs)   bands (ev):

   -14.1672 -14.1672 -14.0440 -14.0440 -13.9532 -13.9532 -13.9101 -13.9100
   -13.8943 -13.8943  -8.9895  -8.9894  -6.6827  -6.6826   2.3714   2.3715
     4.7858   4.7861   7.0364   7.0366   8.0813   8.0813   8.3564   8.3565
     9.5593   9.5595

          k = 0.8333 0.0000 0.4871 (  3079 PWs)   bands (ev):

   -14.2178 -14.1038 -14.0484 -14.0394 -13.9641 -13.9359 -13.9106 -13.9066
   -13.9049 -13.8840  -9.7205  -7.9737  -7.0284  -6.5242   0.9560   4.2033
     4.6778   5.4783   6.4735   6.8589   7.3675   7.7539   7.9896   9.1443
     9.5439  10.0466

          k = 0.8333 0.1624-0.0000 (  3079 PWs)   bands (ev):

   -14.2178 -14.1038 -14.0484 -14.0394 -13.9641 -13.9359 -13.9106 -13.9067
   -13.9049 -13.8840  -9.7205  -7.9737  -7.0284  -6.5242   0.9560   4.2033
     4.6778   5.4783   6.4735   6.8589   7.3675   7.7539   7.9896   9.1443
     9.5439  10.0466

          k = 0.8333 0.1624 0.1624 (  3076 PWs)   bands (ev):

   -14.2014 -14.1181 -14.0537 -14.0381 -13.9627 -13.9411 -13.9108 -13.9045
   -13.9007 -13.8869  -9.4669  -8.0646  -7.2850  -6.5832   1.4601   3.4778
     5.3575   5.6076   6.0276   6.6628   7.3193   7.9031   8.4269   8.8764
     9.4312   9.9503

          k = 0.8333 0.1624 0.3248 (  3070 PWs)   bands (ev):

   -14.1612 -14.1612 -14.0463 -14.0463 -13.9557 -13.9557 -13.9077 -13.9077
   -13.8899 -13.8899  -8.7874  -8.7873  -6.9866  -6.9865   2.5597   2.5598
     5.1843   5.1844   6.7240   6.7242   7.6056   7.6062   8.6278   8.6282
     9.5404   9.5405

          k = 0.8333 0.1624 0.4871 (  3076 PWs)   bands (ev):

   -14.2014 -14.1181 -14.0537 -14.0381 -13.9627 -13.9411 -13.9108 -13.9045
   -13.9007 -13.8869  -9.4669  -8.0646  -7.2850  -6.5832   1.4601   3.4778
     5.3575   5.6076   6.0276   6.6628   7.3193   7.9031   8.4268   8.8764
     9.4312   9.9503

          k = 0.8333 0.3248 0.0000 (  3088 PWs)   bands (ev):

   -14.1672 -14.1672 -14.0441 -14.0440 -13.9532 -13.9532 -13.9101 -13.9100
   -13.8943 -13.8943  -8.9895  -8.9894  -6.6827  -6.6826   2.3714   2.3715
     4.7858   4.7861   7.0364   7.0366   8.0813   8.0813   8.3564   8.3565
     9.5593   9.5595

          k = 0.8333 0.3248 0.1624 (  3070 PWs)   bands (ev):

   -14.1612 -14.1612 -14.0463 -14.0463 -13.9557 -13.9557 -13.9077 -13.9077
   -13.8899 -13.8899  -8.7874  -8.7873  -6.9866  -6.9864   2.5597   2.5598
     5.1843   5.1844   6.7240   6.7242   7.6056   7.6062   8.6278   8.6282
     9.5404   9.5405

          k = 0.8333 0.3248 0.3248 (  3056 PWs)   bands (ev):

   -14.1560 -14.1560 -14.0525 -14.0525 -13.9584 -13.9584 -13.9069 -13.9068
   -13.8873 -13.8873  -8.4946  -8.4944  -7.3774  -7.3774   2.7494   2.7495
     5.7807   5.7807   6.6666   6.6667   6.7366   6.7372   9.1512   9.1513
     9.1884   9.1884

          k = 0.8333 0.3248 0.4871 (  3070 PWs)   bands (ev):

   -14.1612 -14.1612 -14.0463 -14.0463 -13.9557 -13.9557 -13.9077 -13.9077
   -13.8899 -13.8899  -8.7875  -8.7873  -6.9866  -6.9865   2.5597   2.5598
     5.1842   5.1845   6.7240   6.7241   7.6057   7.6061   8.6280   8.6281
     9.5404   9.5405

          k = 0.8333 0.4871 0.0000 (  3079 PWs)   bands (ev):

   -14.2178 -14.1038 -14.0484 -14.0394 -13.9641 -13.9359 -13.9106 -13.9066
   -13.9049 -13.8840  -9.7205  -7.9737  -7.0284  -6.5242   0.9560   4.2033
     4.6778   5.4783   6.4735   6.8589   7.3675   7.7539   7.9896   9.1443
     9.5439  10.0466

          k = 0.8333 0.4871 0.1624 (  3076 PWs)   bands (ev):

   -14.2014 -14.1181 -14.0537 -14.0381 -13.9627 -13.9411 -13.9108 -13.9045
   -13.9007 -13.8869  -9.4669  -8.0646  -7.2850  -6.5832   1.4601   3.4778
     5.3575   5.6076   6.0276   6.6628   7.3193   7.9031   8.4268   8.8764
     9.4312   9.9503

          k = 0.8333 0.4871 0.3248 (  3070 PWs)   bands (ev):

   -14.1612 -14.1612 -14.0463 -14.0463 -13.9557 -13.9557 -13.9077 -13.9077
   -13.8899 -13.8899  -8.7875  -8.7873  -6.9866  -6.9865   2.5597   2.5598
     5.1842   5.1845   6.7240   6.7241   7.6057   7.6061   8.6280   8.6281
     9.5404   9.5405

          k = 0.8333 0.4871 0.4871 (  3076 PWs)   bands (ev):

   -14.2014 -14.1181 -14.0537 -14.0381 -13.9627 -13.9411 -13.9108 -13.9045
   -13.9007 -13.8869  -9.4669  -8.0646  -7.2850  -6.5832   1.4601   3.4778
     5.3575   5.6076   6.0276   6.6628   7.3193   7.9031   8.4269   8.8765
     9.4312   9.9503

     highest occupied level (ev):    10.4938

!    total energy              =    -489.74080673 Ry
     estimated scf accuracy    <          2.1E-09 Ry

     The total energy is the sum of the following terms:
     one-electron contribution =    -162.97673470 Ry
     hartree contribution      =     122.82656206 Ry
     xc contribution           =    -121.43926262 Ry
     ewald contribution        =    -328.25994553 Ry

     convergence has been achieved in  11 iterations

     Forces acting on atoms (cartesian axes, Ry/au):

     atom    1 type  1   force =    -0.00634507    0.00001684    0.00001672
     atom    2 type  1   force =    -0.00644135    0.00001126    0.00001140
     atom    3 type  2   force =     0.00318581   -0.00085069   -0.00085065
     atom    4 type  2   force =     0.00320745    0.00083220   -0.00088292
     atom    5 type  2   force =     0.00318578    0.00087326    0.00087330
     atom    6 type  2   force =     0.00320739   -0.00088287    0.00083215

     Total force =     0.011338     Total SCF correction =     0.000030
 
     init_run     :      0.65s CPU      0.72s WALL (       1 calls)
     electrons    :     39.25s CPU     49.33s WALL (       1 calls)
     forces       :      0.26s CPU      0.26s WALL (       1 calls)

     Called by init_run:
     wfcinit      :      0.57s CPU      0.63s WALL (       1 calls)
     potinit      :      0.03s CPU      0.03s WALL (       1 calls)
     hinit0       :      0.04s CPU      0.05s WALL (       1 calls)

     Called by electrons:
     c_bands      :     30.88s CPU     37.06s WALL (      11 calls)
     sum_band     :      1.85s CPU      1.92s WALL (      11 calls)
     v_of_rho     :      0.03s CPU      0.03s WALL (      12 calls)
     mix_rho      :      0.01s CPU      0.01s WALL (      11 calls)

     Called by c_bands:
     init_us_2    :      0.27s CPU      0.30s WALL (    2304 calls)
     cegterg      :     29.29s CPU     35.36s WALL (    1056 calls)

     Called by *egterg:
     cdiaghg      :      4.07s CPU      5.43s WALL (    4943 calls)
     h_psi        :     23.78s CPU     28.17s WALL (    5039 calls)
     g_psi        :      0.06s CPU      0.07s WALL (    3887 calls)

     Called by h_psi:
     h_psi:calbec :      0.58s CPU      0.60s WALL (    5039 calls)
     vloc_psi     :     10.02s CPU     10.63s WALL (    5039 calls)
     add_vuspsi   :      0.42s CPU      0.44s WALL (    5039 calls)

     General routines
     calbec       :      0.62s CPU      0.65s WALL (    5423 calls)
     fft          :      0.01s CPU      0.02s WALL (     130 calls)
     ffts         :      0.00s CPU      0.00s WALL (      11 calls)
     fftw         :     10.61s CPU     11.22s WALL (  203356 calls)
 
     Parallel routines

     Electric-field routines
     h_epsi_set   :      3.48s CPU      5.58s WALL (      11 calls)
     h_epsi_apply :     12.70s CPU     16.43s WALL (    4943 calls)
     c_phase_fiel :      3.00s CPU      4.74s WALL (      33 calls)
 
     PWSCF        :     40.19s CPU     50.37s WALL

 
   This run was terminated on:  15:34:50  19May2025            

=------------------------------------------------------------------------------=
   JOB DONE.
=------------------------------------------------------------------------------=
