
     Program PWSCF v.6.8 starts on 19May2025 at 15:33: 9 

     This program is part of the open-source Quantum ESPRESSO suite
     for quantum simulation of materials; please cite
         "P. Giannozzi et al., J. Phys.:Condens. Matter 21 395502 (2009);
         "P. Giannozzi et al., J. Phys.:Condens. Matter 29 465901 (2017);
         "P. Giannozzi et al., J. Chem. Phys. 152 154105 (2020);
          URL http://www.quantum-espresso.org", 
     in publications or presentations arising from this work. More details at
     http://www.quantum-espresso.org/quote

     Parallel version (MPI & OpenMP), running on       8 processor cores
     Number of MPI processes:                 8
     Threads/MPI process:                     1

     MPI processes distributed on     1 nodes
     R & G space division:  proc/nbgrp/npool/nimage =       8
     188094 MiB available memory on the printing compute node when the environment starts
 
     Reading input from scf_efield_+x.in
Warning: card &CELL ignored
Warning: card    CELL_DYNAMICS    = 'NONE' ignored
Warning: card / ignored
Warning: card &FCP ignored
Warning: card / ignored
Warning: card &RISM ignored
Warning: card / ignored

     Current dimensions of program PWSCF are:
     Max number of different atomic species (ntypx) = 10
     Max number of k-points (npk) =  40000
     Max angular momentum in pseudopotentials (lmaxx) =  4

     Subspace diagonalization in iterative solution of the eigenvalue problem:
     one sub-group per band group will be used
     scalapack distributed-memory algorithm (size of sub-group:  2*  2 procs)

 
     Parallelization info
     --------------------
     sticks:   dense  smooth     PW     G-vecs:    dense   smooth      PW
     Min         110     110     36                 3076     3076     594
     Max         111     111     37                 3077     3077     597
     Sum         883     883    295                24611    24611    4767
 
     Using Slab Decomposition
 


     bravais-lattice index     =            0
     lattice parameter (alat)  =       5.4894  a.u.
     unit-cell volume          =     392.0941 (a.u.)^3
     number of atoms/cell      =            6
     number of atomic types    =            2
     number of electrons       =        52.00
     number of Kohn-Sham states=           26
     kinetic-energy cutoff     =      60.0000  Ry
     charge density cutoff     =     240.0000  Ry
     scf convergence threshold =      1.0E-08
     mixing beta               =       0.7000
     number of iterations used =            8  plain     mixing
     Exchange-correlation= PBE
                           (   1   4   3   4   0   0   0)
 
     Using Berry phase electric field
     In a.u.(Ry)  cartesian system of reference
        0.0010000000
        0.0000000000
        0.0000000000
     In a.u.(Ry)  crystal system of reference
        0.0010000000
        0.0000000000
        0.0000000000
     Number of iterative cycles:   1
 

     celldm(1)=   5.489440  celldm(2)=   0.000000  celldm(3)=   0.000000
     celldm(4)=   0.000000  celldm(5)=   0.000000  celldm(6)=   0.000000

     crystal axes: (cart. coord. in units of alat)
               a(1) = (   1.000000   0.000000   0.000000 )  
               a(2) = (   0.000000   1.539583  -0.000000 )  
               a(3) = (   0.000000  -0.000000   1.539583 )  

     reciprocal axes: (cart. coord. in units 2 pi/alat)
               b(1) = (  1.000000 -0.000000 -0.000000 )  
               b(2) = ( -0.000000  0.649527  0.000000 )  
               b(3) = ( -0.000000  0.000000  0.649527 )  


     PseudoPot. # 1 for Ge read from file:
     ./Ge.upf
     MD5 check sum: 087fa14d6c89b52166990835c3b338da
     Pseudo is Norm-conserving + core correction, Zval = 14.0
     Generated using ONCVPSP code by D. R. Hamann
     Using radial grid of 1560 points,  6 beta functions with: 
                l(1) =   0
                l(2) =   0
                l(3) =   1
                l(4) =   1
                l(5) =   2
                l(6) =   2

     PseudoPot. # 2 for O  read from file:
     ./O.upf
     MD5 check sum: 9db02a5ece9d56b81b65a73f8163743d
     Pseudo is Norm-conserving + core correction, Zval =  6.0
     Generated using ONCVPSP code by D. R. Hamann
     Using radial grid of  936 points,  5 beta functions with: 
                l(1) =   0
                l(2) =   0
                l(3) =   1
                l(4) =   1
                l(5) =   2

     atomic species   valence    mass     pseudopotential
        Ge            14.00    72.63000     Ge( 1.00)
        O              6.00    15.99900     O ( 1.00)

     No symmetry found



   Cartesian axes

     site n.     atom                  positions (alat units)
         1           Ge  tau(   1) = (   0.5005378   0.7701227   0.7701227  )
         2           Ge  tau(   2) = (   0.0006032   0.0003332   0.0003332  )
         3           O   tau(   3) = (   0.0005626   1.0674164   1.0674164  )
         4           O   tau(   4) = (   0.5005694   1.2426816   0.2976664  )
         5           O   tau(   5) = (   0.0005626   0.4728529   0.4728529  )
         6           O   tau(   6) = (   0.5005694   0.2976664   1.2426816  )

     number of k points=    96
                       cart. coord. in units 2pi/alat
        k(    1) = (   0.0000000   0.0000000   0.0000000), wk =   0.0208333
        k(    2) = (  -0.0000000   0.0000000   0.1623816), wk =   0.0208333
        k(    3) = (  -0.0000000   0.0000000   0.3247633), wk =   0.0208333
        k(    4) = (  -0.0000000   0.0000000   0.4871449), wk =   0.0208333
        k(    5) = (  -0.0000000   0.1623816   0.0000000), wk =   0.0208333
        k(    6) = (  -0.0000000   0.1623816   0.1623816), wk =   0.0208333
        k(    7) = (  -0.0000000   0.1623817   0.3247633), wk =   0.0208333
        k(    8) = (  -0.0000000   0.1623817   0.4871449), wk =   0.0208333
        k(    9) = (  -0.0000000   0.3247633   0.0000000), wk =   0.0208333
        k(   10) = (  -0.0000000   0.3247633   0.1623817), wk =   0.0208333
        k(   11) = (  -0.0000000   0.3247633   0.3247633), wk =   0.0208333
        k(   12) = (  -0.0000000   0.3247633   0.4871449), wk =   0.0208333
        k(   13) = (  -0.0000000   0.4871449   0.0000000), wk =   0.0208333
        k(   14) = (  -0.0000000   0.4871449   0.1623817), wk =   0.0208333
        k(   15) = (  -0.0000000   0.4871449   0.3247633), wk =   0.0208333
        k(   16) = (  -0.0000000   0.4871449   0.4871449), wk =   0.0208333
        k(   17) = (   0.1666667  -0.0000000  -0.0000000), wk =   0.0208333
        k(   18) = (   0.1666667   0.0000000   0.1623816), wk =   0.0208333
        k(   19) = (   0.1666667   0.0000000   0.3247633), wk =   0.0208333
        k(   20) = (   0.1666667   0.0000000   0.4871449), wk =   0.0208333
        k(   21) = (   0.1666667   0.1623816   0.0000000), wk =   0.0208333
        k(   22) = (   0.1666667   0.1623816   0.1623816), wk =   0.0208333
        k(   23) = (   0.1666667   0.1623816   0.3247633), wk =   0.0208333
        k(   24) = (   0.1666667   0.1623817   0.4871449), wk =   0.0208333
        k(   25) = (   0.1666667   0.3247633   0.0000000), wk =   0.0208333
        k(   26) = (   0.1666667   0.3247633   0.1623816), wk =   0.0208333
        k(   27) = (   0.1666667   0.3247633   0.3247633), wk =   0.0208333
        k(   28) = (   0.1666667   0.3247633   0.4871449), wk =   0.0208333
        k(   29) = (   0.1666667   0.4871449   0.0000000), wk =   0.0208333
        k(   30) = (   0.1666667   0.4871449   0.1623817), wk =   0.0208333
        k(   31) = (   0.1666667   0.4871449   0.3247633), wk =   0.0208333
        k(   32) = (   0.1666666   0.4871449   0.4871449), wk =   0.0208333
        k(   33) = (   0.3333333  -0.0000000  -0.0000000), wk =   0.0208333
        k(   34) = (   0.3333333   0.0000000   0.1623816), wk =   0.0208333
        k(   35) = (   0.3333333   0.0000000   0.3247633), wk =   0.0208333
        k(   36) = (   0.3333333   0.0000000   0.4871449), wk =   0.0208333
        k(   37) = (   0.3333333   0.1623816   0.0000000), wk =   0.0208333
        k(   38) = (   0.3333333   0.1623816   0.1623816), wk =   0.0208333
        k(   39) = (   0.3333333   0.1623816   0.3247633), wk =   0.0208333
        k(   40) = (   0.3333333   0.1623817   0.4871449), wk =   0.0208333
        k(   41) = (   0.3333333   0.3247633   0.0000000), wk =   0.0208333
        k(   42) = (   0.3333333   0.3247633   0.1623816), wk =   0.0208333
        k(   43) = (   0.3333333   0.3247633   0.3247633), wk =   0.0208333
        k(   44) = (   0.3333333   0.3247633   0.4871449), wk =   0.0208333
        k(   45) = (   0.3333333   0.4871449   0.0000000), wk =   0.0208333
        k(   46) = (   0.3333333   0.4871449   0.1623817), wk =   0.0208333
        k(   47) = (   0.3333333   0.4871449   0.3247633), wk =   0.0208333
        k(   48) = (   0.3333333   0.4871449   0.4871449), wk =   0.0208333
        k(   49) = (   0.5000000  -0.0000000  -0.0000000), wk =   0.0208333
        k(   50) = (   0.5000000  -0.0000000   0.1623816), wk =   0.0208333
        k(   51) = (   0.5000000   0.0000000   0.3247633), wk =   0.0208333
        k(   52) = (   0.5000000   0.0000000   0.4871449), wk =   0.0208333
        k(   53) = (   0.5000000   0.1623816  -0.0000000), wk =   0.0208333
        k(   54) = (   0.5000000   0.1623816   0.1623816), wk =   0.0208333
        k(   55) = (   0.5000000   0.1623816   0.3247633), wk =   0.0208333
        k(   56) = (   0.5000000   0.1623817   0.4871449), wk =   0.0208333
        k(   57) = (   0.5000000   0.3247633   0.0000000), wk =   0.0208333
        k(   58) = (   0.5000000   0.3247633   0.1623816), wk =   0.0208333
        k(   59) = (   0.5000000   0.3247633   0.3247633), wk =   0.0208333
        k(   60) = (   0.5000000   0.3247633   0.4871449), wk =   0.0208333
        k(   61) = (   0.5000000   0.4871449   0.0000000), wk =   0.0208333
        k(   62) = (   0.5000000   0.4871449   0.1623817), wk =   0.0208333
        k(   63) = (   0.5000000   0.4871449   0.3247633), wk =   0.0208333
        k(   64) = (   0.5000000   0.4871449   0.4871449), wk =   0.0208333
        k(   65) = (   0.6666667  -0.0000000  -0.0000000), wk =   0.0208333
        k(   66) = (   0.6666667  -0.0000000   0.1623816), wk =   0.0208333
        k(   67) = (   0.6666667   0.0000000   0.3247633), wk =   0.0208333
        k(   68) = (   0.6666667   0.0000000   0.4871449), wk =   0.0208333
        k(   69) = (   0.6666667   0.1623816  -0.0000000), wk =   0.0208333
        k(   70) = (   0.6666667   0.1623816   0.1623816), wk =   0.0208333
        k(   71) = (   0.6666667   0.1623816   0.3247633), wk =   0.0208333
        k(   72) = (   0.6666667   0.1623816   0.4871449), wk =   0.0208333
        k(   73) = (   0.6666667   0.3247633   0.0000000), wk =   0.0208333
        k(   74) = (   0.6666667   0.3247633   0.1623816), wk =   0.0208333
        k(   75) = (   0.6666667   0.3247633   0.3247633), wk =   0.0208333
        k(   76) = (   0.6666667   0.3247633   0.4871449), wk =   0.0208333
        k(   77) = (   0.6666667   0.4871449   0.0000000), wk =   0.0208333
        k(   78) = (   0.6666667   0.4871449   0.1623816), wk =   0.0208333
        k(   79) = (   0.6666667   0.4871449   0.3247633), wk =   0.0208333
        k(   80) = (   0.6666666   0.4871449   0.4871449), wk =   0.0208333
        k(   81) = (   0.8333333  -0.0000000  -0.0000000), wk =   0.0208333
        k(   82) = (   0.8333333  -0.0000000   0.1623816), wk =   0.0208333
        k(   83) = (   0.8333333   0.0000000   0.3247632), wk =   0.0208333
        k(   84) = (   0.8333333   0.0000000   0.4871449), wk =   0.0208333
        k(   85) = (   0.8333333   0.1623816  -0.0000000), wk =   0.0208333
        k(   86) = (   0.8333333   0.1623816   0.1623816), wk =   0.0208333
        k(   87) = (   0.8333333   0.1623816   0.3247633), wk =   0.0208333
        k(   88) = (   0.8333333   0.1623816   0.4871449), wk =   0.0208333
        k(   89) = (   0.8333333   0.3247632   0.0000000), wk =   0.0208333
        k(   90) = (   0.8333333   0.3247633   0.1623816), wk =   0.0208333
        k(   91) = (   0.8333333   0.3247633   0.3247633), wk =   0.0208333
        k(   92) = (   0.8333333   0.3247633   0.4871449), wk =   0.0208333
        k(   93) = (   0.8333333   0.4871449   0.0000000), wk =   0.0208333
        k(   94) = (   0.8333333   0.4871449   0.1623816), wk =   0.0208333
        k(   95) = (   0.8333333   0.4871449   0.3247633), wk =   0.0208333
        k(   96) = (   0.8333333   0.4871449   0.4871449), wk =   0.0208333

     Dense  grid:    24611 G-vectors     FFT dimensions: (  27,  45,  45)

     Estimated max dynamical RAM per process >      20.33 MB

     Estimated total dynamical RAM >     162.64 MB

     Check: negative core charge=   -0.000052
     Cannot read rho : file not found

     Initial potential from superposition of free atoms

     starting charge   51.99834, renormalised to   52.00000
     Starting wfcs are   34 randomized atomic wfcs

     total cpu time spent up to now is        0.8 secs

     Self-consistent Calculation

     iteration #  1     ecut=    60.00 Ry     beta= 0.70
     Davidson diagonalization with overlap
     ethr =  1.00E-05,  avg # of iterations =  7.0
 
     Expectation value of exp(iGx): (-0.238765354787427,1.508254675908974E-002)
   1.00000000000000     
     Electronic Dipole per cell (Ry a.u.)   7.60734966049099     
     Ionic Dipole per cell (Ry a.u.)   101.151577625544     
 
     Expectation value of exp(iGx): (-0.421333013927157,1.566608700256712E-002)
   1.53958300451311     
     Electronic Dipole per cell (Ry a.u.)   11.8107586294934     
     Ionic Dipole per cell (Ry a.u.)   227.230714072861     
 
     Expectation value of exp(iGx): (-0.421338165056492,1.569269957204532E-002)
   1.53958300451311     
     Electronic Dipole per cell (Ry a.u.)   11.8105203896797     
     Ionic Dipole per cell (Ry a.u.)   227.230714072861     
Electronic Dipole on Cartesian axes
           1   7.60735010943281     
           2   11.8107581000560     
           3   11.8105198602286     
Ionic Dipole on Cartesian axes
           1   101.151577625544     
           2   227.230714072861     
           3   227.230714072861     

     total cpu time spent up to now is        8.1 secs

     total energy              =    -489.45480006 Ry
     estimated scf accuracy    <       1.20858783 Ry

     iteration #  2     ecut=    60.00 Ry     beta= 0.70
     Davidson diagonalization with overlap
     ethr =  2.32E-03,  avg # of iterations =  4.0
 
     Expectation value of exp(iGx): (-0.150254717488959,7.044914402419212E-003)
   1.00000000000000     
     Electronic Dipole per cell (Ry a.u.)   7.64746309679377     
     Ionic Dipole per cell (Ry a.u.)   101.151577625544     
 
     Expectation value of exp(iGx): (-0.323380752626209,1.200589310254199E-002)
   1.53958300451311     
     Electronic Dipole per cell (Ry a.u.)   11.8109714380201     
     Ionic Dipole per cell (Ry a.u.)   227.230714072861     
 
     Expectation value of exp(iGx): (-0.323388861606566,1.200875772255262E-002)
   1.53958300451311     
     Electronic Dipole per cell (Ry a.u.)   11.8109413206442     
     Ionic Dipole per cell (Ry a.u.)   227.230714072861     
Electronic Dipole on Cartesian axes
           1   7.64746354574763     
           2   11.8109709093594     
           3   11.8109407919818     
Ionic Dipole on Cartesian axes
           1   101.151577625544     
           2   227.230714072861     
           3   227.230714072861     

     total cpu time spent up to now is       12.5 secs

     total energy              =    -489.81478861 Ry
     estimated scf accuracy    <       0.78335581 Ry

     iteration #  3     ecut=    60.00 Ry     beta= 0.70
     Davidson diagonalization with overlap
     ethr =  1.51E-03,  avg # of iterations =  2.0
 
     Expectation value of exp(iGx): (-0.173426487628740,7.404824982835928E-003)
   1.00000000000000     
     Electronic Dipole per cell (Ry a.u.)   7.65779455073486     
     Ionic Dipole per cell (Ry a.u.)   101.151577625544     
 
     Expectation value of exp(iGx): (-0.352265552397935,1.308998094182892E-002)
   1.53958300451311     
     Electronic Dipole per cell (Ry a.u.)   11.8108451924549     
     Ionic Dipole per cell (Ry a.u.)   227.230714072861     
 
     Expectation value of exp(iGx): (-0.352271071591887,1.309045643548058E-002)
   1.53958300451311     
     Electronic Dipole per cell (Ry a.u.)   11.8108422761526     
     Ionic Dipole per cell (Ry a.u.)   227.230714072861     
Electronic Dipole on Cartesian axes
           1   7.65779499968444     
           2   11.8108446640062     
           3   11.8108417477037     
Ionic Dipole on Cartesian axes
           1   101.151577625544     
           2   227.230714072861     
           3   227.230714072861     

     total cpu time spent up to now is       16.4 secs

     total energy              =    -489.94177960 Ry
     estimated scf accuracy    <       0.01164800 Ry

     iteration #  4     ecut=    60.00 Ry     beta= 0.70
     Davidson diagonalization with overlap
     ethr =  2.24E-05,  avg # of iterations =  5.4
 
     Expectation value of exp(iGx): (-0.195148744404215,9.211931953164824E-003)
   1.00000000000000     
     Electronic Dipole per cell (Ry a.u.)   7.64667854377131     
     Ionic Dipole per cell (Ry a.u.)   101.151577625544     
 
     Expectation value of exp(iGx): (-0.376116887508777,1.398266258292916E-002)
   1.53958300451311     
     Electronic Dipole per cell (Ry a.u.)   11.8107807462286     
     Ionic Dipole per cell (Ry a.u.)   227.230714072861     
 
     Expectation value of exp(iGx): (-0.376117076952071,1.398202949214108E-002)
   1.53958300451311     
     Electronic Dipole per cell (Ry a.u.)   11.8107872123529     
     Ionic Dipole per cell (Ry a.u.)   227.230714072861     
Electronic Dipole on Cartesian axes
           1   7.64667899271863     
           2   11.8107802175612     
           3   11.8107866836858     
Ionic Dipole on Cartesian axes
           1   101.151577625544     
           2   227.230714072861     
           3   227.230714072861     

     total cpu time spent up to now is       21.6 secs

     total energy              =    -489.95721225 Ry
     estimated scf accuracy    <       0.02078450 Ry

     iteration #  5     ecut=    60.00 Ry     beta= 0.70
     Davidson diagonalization with overlap
     ethr =  2.24E-05,  avg # of iterations =  2.0
 
     Expectation value of exp(iGx): (-0.192429175427370,9.285214736498598E-003)
   1.00000000000000     
     Electronic Dipole per cell (Ry a.u.)   7.64409478542557     
     Ionic Dipole per cell (Ry a.u.)   101.151577625544     
 
     Expectation value of exp(iGx): (-0.373102510254301,1.386821818122579E-002)
   1.53958300451311     
     Electronic Dipole per cell (Ry a.u.)   11.8108049893150     
     Ionic Dipole per cell (Ry a.u.)   227.230714072861     
 
     Expectation value of exp(iGx): (-0.373102452975641,1.386845818745853E-002)
   1.53958300451311     
     Electronic Dipole per cell (Ry a.u.)   11.8108025236924     
     Ionic Dipole per cell (Ry a.u.)   227.230714072861     
Electronic Dipole on Cartesian axes
           1   7.64409523437364     
           2   11.8108044605951     
           3   11.8108019949723     
Ionic Dipole on Cartesian axes
           1   101.151577625544     
           2   227.230714072861     
           3   227.230714072861     

     total cpu time spent up to now is       25.4 secs

     total energy              =    -489.95696194 Ry
     estimated scf accuracy    <       0.00367883 Ry

     iteration #  6     ecut=    60.00 Ry     beta= 0.70
     Davidson diagonalization with overlap
     ethr =  7.07E-06,  avg # of iterations =  4.0
 
     Expectation value of exp(iGx): (-0.188236651400456,9.037339936683805E-003)
   1.00000000000000     
     Electronic Dipole per cell (Ry a.u.)   7.64469169099919     
     Ionic Dipole per cell (Ry a.u.)   101.151577625544     
 
     Expectation value of exp(iGx): (-0.368610585128434,1.370334483554846E-002)
   1.53958300451311     
     Electronic Dipole per cell (Ry a.u.)   11.8107834325469     
     Ionic Dipole per cell (Ry a.u.)   227.230714072861     
 
     Expectation value of exp(iGx): (-0.368610686620657,1.370169773939185E-002)
   1.53958300451311     
     Electronic Dipole per cell (Ry a.u.)   11.8108004479124     
     Ionic Dipole per cell (Ry a.u.)   227.230714072861     
Electronic Dipole on Cartesian axes
           1   7.64469213994680     
           2   11.8107829038390     
           3   11.8107999192055     
Ionic Dipole on Cartesian axes
           1   101.151577625544     
           2   227.230714072861     
           3   227.230714072861     

     total cpu time spent up to now is       29.8 secs

     total energy              =    -489.95819972 Ry
     estimated scf accuracy    <       0.00005624 Ry

     iteration #  7     ecut=    60.00 Ry     beta= 0.70
     Davidson diagonalization with overlap
     ethr =  1.08E-07,  avg # of iterations =  2.7
 
     Expectation value of exp(iGx): (-0.188067233165732,8.964233340686238E-003)
   1.00000000000000     
     Electronic Dipole per cell (Ry a.u.)   7.64554345338080     
     Ionic Dipole per cell (Ry a.u.)   101.151577625544     
 
     Expectation value of exp(iGx): (-0.368415268030772,1.369096075370609E-002)
   1.53958300451311     
     Electronic Dipole per cell (Ry a.u.)   11.8108362632836     
     Ionic Dipole per cell (Ry a.u.)   227.230714072861     
 
     Expectation value of exp(iGx): (-0.368415298449926,1.369183234116078E-002)
   1.53958300451311     
     Electronic Dipole per cell (Ry a.u.)   11.8108272867935     
     Ionic Dipole per cell (Ry a.u.)   227.230714072861     
Electronic Dipole on Cartesian axes
           1   7.64554390232993     
           2   11.8108357345912     
           3   11.8108267581006     
Ionic Dipole on Cartesian axes
           1   101.151577625544     
           2   227.230714072861     
           3   227.230714072861     

     total cpu time spent up to now is       33.8 secs

     total energy              =    -489.95818301 Ry
     estimated scf accuracy    <       0.00009305 Ry

     iteration #  8     ecut=    60.00 Ry     beta= 0.70
     Davidson diagonalization with overlap
     ethr =  1.08E-07,  avg # of iterations =  2.0
 
     Expectation value of exp(iGx): (-0.188178184579146,8.945118038806571E-003)
   1.00000000000000     
     Electronic Dipole per cell (Ry a.u.)   7.64586319453743     
     Ionic Dipole per cell (Ry a.u.)   101.151577625544     
 
     Expectation value of exp(iGx): (-0.368545525647277,1.369696519497094E-002)
   1.53958300451311     
     Electronic Dipole per cell (Ry a.u.)   11.8108242655700     
     Ionic Dipole per cell (Ry a.u.)   227.230714072861     
 
     Expectation value of exp(iGx): (-0.368545565356426,1.369741058421354E-002)
   1.53958300451311     
     Electronic Dipole per cell (Ry a.u.)   11.8108196893814     
     Ionic Dipole per cell (Ry a.u.)   227.230714072861     
Electronic Dipole on Cartesian axes
           1   7.64586364348618     
           2   11.8108237368844     
           3   11.8108191606955     
Ionic Dipole on Cartesian axes
           1   101.151577625544     
           2   227.230714072861     
           3   227.230714072861     

     total cpu time spent up to now is       37.3 secs

     total energy              =    -489.95817359 Ry
     estimated scf accuracy    <       0.00003118 Ry

     iteration #  9     ecut=    60.00 Ry     beta= 0.70
     Davidson diagonalization with overlap
     ethr =  6.00E-08,  avg # of iterations =  3.5
 
     Expectation value of exp(iGx): (-0.188398823815640,8.953613100933601E-003)
   1.00000000000000     
     Electronic Dipole per cell (Ry a.u.)   7.64588927797703     
     Ionic Dipole per cell (Ry a.u.)   101.151577625544     
 
     Expectation value of exp(iGx): (-0.368785707389891,1.370613030936071E-002)
   1.53958300451311     
     Electronic Dipole per cell (Ry a.u.)   11.8108218056621     
     Ionic Dipole per cell (Ry a.u.)   227.230714072861     
 
     Expectation value of exp(iGx): (-0.368785742745721,1.370612760987368E-002)
   1.53958300451311     
     Electronic Dipole per cell (Ry a.u.)   11.8108218470094     
     Ionic Dipole per cell (Ry a.u.)   227.230714072861     
Electronic Dipole on Cartesian axes
           1   7.64588972692578     
           2   11.8108212769769     
           3   11.8108213183241     
Ionic Dipole on Cartesian axes
           1   101.151577625544     
           2   227.230714072861     
           3   227.230714072861     

     total cpu time spent up to now is       41.4 secs

     total energy              =    -489.95817769 Ry
     estimated scf accuracy    <       0.00000147 Ry

     iteration # 10     ecut=    60.00 Ry     beta= 0.70
     Davidson diagonalization with overlap
     ethr =  2.83E-09,  avg # of iterations =  2.9
 
     Expectation value of exp(iGx): (-0.188469916649441,8.966006777497697E-003)
   1.00000000000000     
     Electronic Dipole per cell (Ry a.u.)   7.64577134471456     
     Ionic Dipole per cell (Ry a.u.)   101.151577625544     
 
     Expectation value of exp(iGx): (-0.368861668859443,1.370906353457226E-002)
   1.53958300451311     
     Electronic Dipole per cell (Ry a.u.)   11.8108206719098     
     Ionic Dipole per cell (Ry a.u.)   227.230714072861     
 
     Expectation value of exp(iGx): (-0.368861665727651,1.370921896276901E-002)
   1.53958300451311     
     Electronic Dipole per cell (Ry a.u.)   11.8108190698151     
     Ionic Dipole per cell (Ry a.u.)   227.230714072861     
Electronic Dipole on Cartesian axes
           1   7.64577179366324     
           2   11.8108201432224     
           3   11.8108185411276     
Ionic Dipole on Cartesian axes
           1   101.151577625544     
           2   227.230714072861     
           3   227.230714072861     

     total cpu time spent up to now is       45.5 secs

     total energy              =    -489.95817800 Ry
     estimated scf accuracy    <       0.00000003 Ry

     iteration # 11     ecut=    60.00 Ry     beta= 0.70
     Davidson diagonalization with overlap
     ethr =  5.66E-11,  avg # of iterations =  4.6
 
     Expectation value of exp(iGx): (-0.188487331013618,8.969813640963546E-003)
   1.00000000000000     
     Electronic Dipole per cell (Ry a.u.)   7.64573238512750     
     Ionic Dipole per cell (Ry a.u.)   101.151577625544     
 
     Expectation value of exp(iGx): (-0.368879626326976,1.371029279119172E-002)
   1.53958300451311     
     Electronic Dipole per cell (Ry a.u.)   11.8108148851714     
     Ionic Dipole per cell (Ry a.u.)   227.230714072861     
 
     Expectation value of exp(iGx): (-0.368879641669571,1.371006700694514E-002)
   1.53958300451311     
     Electronic Dipole per cell (Ry a.u.)   11.8108172164875     
     Ionic Dipole per cell (Ry a.u.)   227.230714072861     
Electronic Dipole on Cartesian axes
           1   7.64573283407603     
           2   11.8108143564833     
           3   11.8108166877996     
Ionic Dipole on Cartesian axes
           1   101.151577625544     
           2   227.230714072861     
           3   227.230714072861     

     total cpu time spent up to now is       50.4 secs

     End of self-consistent calculation

          k = 0.0000 0.0000 0.0000 (  3065 PWs)   bands (ev):

   -14.2932 -14.1202 -13.9848 -13.9828 -13.9827 -13.9268 -13.9123 -13.8850
   -13.8850 -13.8832 -10.2577  -7.4322  -7.4322  -6.7328   0.4408   5.2213
     5.2213   5.7515   6.1907   7.1751   8.0735   8.5179   8.5180   9.7112
     9.7112  10.4938

          k =-0.0000 0.0000 0.1624 (  3089 PWs)   bands (ev):

   -14.2697 -14.1424 -13.9910 -13.9837 -13.9817 -13.9438 -13.9128 -13.9020
   -13.8899 -13.8887  -9.9902  -8.1844  -7.2379  -6.5537   0.9303   4.0053
     5.5906   5.9910   6.7215   7.4976   7.7456   8.5167   8.5744   8.7008
     9.6885  10.1252

          k =-0.0000 0.0000 0.3248 (  3068 PWs)   bands (ev):

   -14.2030 -14.2030 -13.9849 -13.9849 -13.9680 -13.9680 -13.8976 -13.8976
   -13.8877 -13.8876  -9.2359  -9.2357  -6.8044  -6.8043   2.2559   2.2560
     6.6495   6.6497   6.7096   6.7099   7.7616   7.7617   8.6912   8.6914
     9.6947   9.6950

          k =-0.0000 0.0000 0.4871 (  3089 PWs)   bands (ev):

   -14.2697 -14.1424 -13.9910 -13.9837 -13.9817 -13.9438 -13.9128 -13.9020
   -13.8899 -13.8887  -9.9902  -8.1844  -7.2379  -6.5537   0.9303   4.0053
     5.5906   5.9910   6.7215   7.4976   7.7456   8.5167   8.5744   8.7008
     9.6885  10.1252

          k =-0.0000 0.1624 0.0000 (  3089 PWs)   bands (ev):

   -14.2697 -14.1424 -13.9910 -13.9837 -13.9817 -13.9438 -13.9128 -13.9020
   -13.8899 -13.8887  -9.9902  -8.1844  -7.2379  -6.5537   0.9303   4.0053
     5.5906   5.9910   6.7215   7.4976   7.7456   8.5167   8.5744   8.7008
     9.6885  10.1252

          k =-0.0000 0.1624 0.1624 (  3093 PWs)   bands (ev):

   -14.2540 -14.1648 -13.9902 -13.9838 -13.9813 -13.9542 -13.9114 -13.9024
   -13.8926 -13.8881  -9.7261  -8.2372  -7.5335  -6.6618   1.4739   3.9790
     5.3092   6.1994   7.0912   7.2988   7.5224   8.3135   8.4670   8.7147
     9.4572   9.8593

          k =-0.0000 0.1624 0.3248 (  3076 PWs)   bands (ev):

   -14.2103 -14.2103 -13.9858 -13.9857 -13.9711 -13.9711 -13.8958 -13.8958
   -13.8943 -13.8943  -9.0113  -9.0112  -7.1619  -7.1618   2.7803   2.7804
     6.2258   6.2260   6.7386   6.7388   7.9460   7.9462   8.5636   8.5638
     9.4311   9.4312

          k =-0.0000 0.1624 0.4871 (  3093 PWs)   bands (ev):

   -14.2540 -14.1648 -13.9902 -13.9838 -13.9813 -13.9542 -13.9114 -13.9024
   -13.8926 -13.8881  -9.7261  -8.2372  -7.5335  -6.6618   1.4739   3.9790
     5.3092   6.1994   7.0912   7.2987   7.5224   8.3134   8.4670   8.7147
     9.4572   9.8593

          k =-0.0000 0.3248 0.0000 (  3068 PWs)   bands (ev):

   -14.2030 -14.2030 -13.9849 -13.9849 -13.9680 -13.9680 -13.8976 -13.8976
   -13.8877 -13.8876  -9.2359  -9.2357  -6.8044  -6.8043   2.2559   2.2560
     6.6495   6.6497   6.7096   6.7099   7.7616   7.7617   8.6912   8.6914
     9.6947   9.6950

          k =-0.0000 0.3248 0.1624 (  3076 PWs)   bands (ev):

   -14.2103 -14.2103 -13.9858 -13.9857 -13.9711 -13.9711 -13.8958 -13.8958
   -13.8943 -13.8943  -9.0113  -9.0112  -7.1619  -7.1618   2.7803   2.7804
     6.2258   6.2260   6.7386   6.7388   7.9460   7.9462   8.5636   8.5638
     9.4311   9.4312

          k =-0.0000 0.3248 0.3248 (  3076 PWs)   bands (ev):

   -14.2184 -14.2184 -13.9894 -13.9894 -13.9768 -13.9768 -13.8932 -13.8932
   -13.8905 -13.8905  -8.6657  -8.6656  -7.6321  -7.6321   3.4804   3.4805
     5.5642   5.5642   6.8414   6.8414   8.2305   8.2305   8.4169   8.4169
     9.0721   9.0722

          k =-0.0000 0.3248 0.4871 (  3076 PWs)   bands (ev):

   -14.2103 -14.2103 -13.9858 -13.9857 -13.9711 -13.9711 -13.8958 -13.8958
   -13.8943 -13.8943  -9.0113  -9.0112  -7.1619  -7.1618   2.7803   2.7804
     6.2258   6.2260   6.7386   6.7388   7.9460   7.9462   8.5636   8.5638
     9.4311   9.4312

          k =-0.0000 0.4871 0.0000 (  3089 PWs)   bands (ev):

   -14.2697 -14.1424 -13.9910 -13.9837 -13.9817 -13.9438 -13.9128 -13.9020
   -13.8899 -13.8887  -9.9902  -8.1844  -7.2379  -6.5537   0.9303   4.0053
     5.5906   5.9910   6.7215   7.4976   7.7456   8.5167   8.5744   8.7008
     9.6885  10.1252

          k =-0.0000 0.4871 0.1624 (  3093 PWs)   bands (ev):

   -14.2540 -14.1648 -13.9902 -13.9838 -13.9813 -13.9542 -13.9114 -13.9024
   -13.8926 -13.8881  -9.7261  -8.2372  -7.5335  -6.6618   1.4739   3.9790
     5.3092   6.1994   7.0912   7.2987   7.5224   8.3134   8.4670   8.7147
     9.4572   9.8593

          k =-0.0000 0.4871 0.3248 (  3076 PWs)   bands (ev):

   -14.2103 -14.2103 -13.9858 -13.9857 -13.9711 -13.9711 -13.8958 -13.8958
   -13.8943 -13.8943  -9.0113  -9.0112  -7.1619  -7.1618   2.7803   2.7804
     6.2258   6.2260   6.7386   6.7388   7.9460   7.9462   8.5636   8.5638
     9.4311   9.4312

          k =-0.0000 0.4871 0.4871 (  3093 PWs)   bands (ev):

   -14.2540 -14.1648 -13.9902 -13.9838 -13.9813 -13.9542 -13.9114 -13.9024
   -13.8926 -13.8881  -9.7261  -8.2372  -7.5335  -6.6618   1.4739   3.9790
     5.3092   6.1994   7.0912   7.2988   7.5224   8.3135   8.4670   8.7147
     9.4572   9.8593

          k = 0.1667-0.0000-0.0000 (  3097 PWs)   bands (ev):

   -14.2385 -14.0654 -14.0548 -14.0547 -13.9707 -13.9287 -13.9112 -13.9112
   -13.9094 -13.8819  -9.9814  -7.1903  -7.1903  -6.7908   0.4083   5.2509
     5.5138   5.5138   5.9989   6.4699   7.1323   7.4015   7.4015   9.6085
     9.6086  10.2355

          k = 0.1667 0.0000 0.1624 (  3079 PWs)   bands (ev):

   -14.2179 -14.1038 -14.0484 -14.0394 -13.9641 -13.9359 -13.9107 -13.9067
   -13.9049 -13.8840  -9.7205  -7.9737  -7.0284  -6.5241   0.9560   4.2033
     4.6778   5.4783   6.4735   6.8589   7.3675   7.7539   7.9896   9.1443
     9.5439  10.0466

          k = 0.1667 0.0000 0.3248 (  3088 PWs)   bands (ev):

   -14.1672 -14.1672 -14.0441 -14.0441 -13.9533 -13.9532 -13.9101 -13.9101
   -13.8943 -13.8943  -8.9895  -8.9894  -6.6827  -6.6826   2.3714   2.3715
     4.7858   4.7861   7.0365   7.0366   8.0813   8.0813   8.3564   8.3566
     9.5593   9.5595

          k = 0.1667 0.0000 0.4871 (  3079 PWs)   bands (ev):

   -14.2179 -14.1038 -14.0484 -14.0394 -13.9641 -13.9359 -13.9107 -13.9067
   -13.9049 -13.8840  -9.7205  -7.9737  -7.0284  -6.5241   0.9560   4.2033
     4.6778   5.4783   6.4735   6.8589   7.3675   7.7539   7.9896   9.1443
     9.5439  10.0466

          k = 0.1667 0.1624 0.0000 (  3079 PWs)   bands (ev):

   -14.2179 -14.1038 -14.0484 -14.0394 -13.9641 -13.9359 -13.9107 -13.9067
   -13.9049 -13.8840  -9.7205  -7.9737  -7.0284  -6.5241   0.9560   4.2033
     4.6778   5.4783   6.4735   6.8589   7.3675   7.7539   7.9896   9.1443
     9.5439  10.0466

          k = 0.1667 0.1624 0.1624 (  3076 PWs)   bands (ev):

   -14.2015 -14.1181 -14.0537 -14.0381 -13.9627 -13.9411 -13.9108 -13.9045
   -13.9008 -13.8869  -9.4669  -8.0646  -7.2850  -6.5832   1.4601   3.4778
     5.3575   5.6076   6.0276   6.6628   7.3194   7.9031   8.4269   8.8765
     9.4312   9.9503

          k = 0.1667 0.1624 0.3248 (  3070 PWs)   bands (ev):

   -14.1612 -14.1612 -14.0463 -14.0463 -13.9557 -13.9557 -13.9077 -13.9077
   -13.8899 -13.8899  -8.7874  -8.7873  -6.9866  -6.9864   2.5597   2.5598
     5.1843   5.1844   6.7240   6.7242   7.6056   7.6063   8.6278   8.6282
     9.5404   9.5406

          k = 0.1667 0.1624 0.4871 (  3076 PWs)   bands (ev):

   -14.2015 -14.1181 -14.0537 -14.0381 -13.9627 -13.9411 -13.9108 -13.9045
   -13.9008 -13.8869  -9.4669  -8.0646  -7.2849  -6.5832   1.4601   3.4778
     5.3575   5.6076   6.0277   6.6628   7.3193   7.9031   8.4269   8.8764
     9.4312   9.9503

          k = 0.1667 0.3248 0.0000 (  3088 PWs)   bands (ev):

   -14.1672 -14.1672 -14.0441 -14.0441 -13.9533 -13.9532 -13.9101 -13.9101
   -13.8943 -13.8943  -8.9895  -8.9894  -6.6827  -6.6826   2.3715   2.3715
     4.7858   4.7861   7.0365   7.0366   8.0813   8.0813   8.3564   8.3566
     9.5593   9.5595

          k = 0.1667 0.3248 0.1624 (  3070 PWs)   bands (ev):

   -14.1612 -14.1612 -14.0463 -14.0463 -13.9557 -13.9557 -13.9077 -13.9077
   -13.8899 -13.8899  -8.7874  -8.7873  -6.9866  -6.9864   2.5597   2.5598
     5.1843   5.1844   6.7240   6.7242   7.6056   7.6063   8.6278   8.6282
     9.5404   9.5406

          k = 0.1667 0.3248 0.3248 (  3056 PWs)   bands (ev):

   -14.1561 -14.1560 -14.0525 -14.0525 -13.9584 -13.9584 -13.9069 -13.9069
   -13.8873 -13.8873  -8.4946  -8.4944  -7.3774  -7.3774   2.7493   2.7495
     5.7807   5.7807   6.6667   6.6667   6.7365   6.7373   9.1512   9.1513
     9.1884   9.1884

          k = 0.1667 0.3248 0.4871 (  3070 PWs)   bands (ev):

   -14.1612 -14.1612 -14.0463 -14.0463 -13.9557 -13.9557 -13.9077 -13.9077
   -13.8899 -13.8899  -8.7874  -8.7873  -6.9865  -6.9865   2.5597   2.5598
     5.1842   5.1845   6.7240   6.7242   7.6057   7.6062   8.6280   8.6281
     9.5404   9.5406

          k = 0.1667 0.4871 0.0000 (  3079 PWs)   bands (ev):

   -14.2179 -14.1038 -14.0484 -14.0394 -13.9641 -13.9359 -13.9107 -13.9067
   -13.9049 -13.8840  -9.7205  -7.9737  -7.0284  -6.5241   0.9560   4.2033
     4.6778   5.4783   6.4735   6.8589   7.3675   7.7539   7.9896   9.1443
     9.5439  10.0466

          k = 0.1667 0.4871 0.1624 (  3076 PWs)   bands (ev):

   -14.2015 -14.1181 -14.0537 -14.0381 -13.9627 -13.9411 -13.9108 -13.9045
   -13.9008 -13.8869  -9.4669  -8.0646  -7.2849  -6.5832   1.4601   3.4778
     5.3575   5.6076   6.0277   6.6628   7.3193   7.9031   8.4269   8.8764
     9.4312   9.9503

          k = 0.1667 0.4871 0.3248 (  3070 PWs)   bands (ev):

   -14.1612 -14.1612 -14.0463 -14.0463 -13.9557 -13.9557 -13.9077 -13.9077
   -13.8899 -13.8899  -8.7874  -8.7873  -6.9865  -6.9865   2.5597   2.5598
     5.1842   5.1845   6.7240   6.7242   7.6057   7.6062   8.6280   8.6281
     9.5404   9.5406

          k = 0.1667 0.4871 0.4871 (  3076 PWs)   bands (ev):

   -14.2015 -14.1181 -14.0537 -14.0381 -13.9627 -13.9411 -13.9108 -13.9045
   -13.9008 -13.8869  -9.4669  -8.0646  -7.2850  -6.5832   1.4601   3.4778
     5.3575   5.6076   6.0276   6.6628   7.3194   7.9031   8.4269   8.8765
     9.4312   9.9503

          k = 0.3333-0.0000-0.0000 (  3094 PWs)   bands (ev):

   -14.1813 -14.1813 -14.1189 -13.9912 -13.9337 -13.9337 -13.9281 -13.9152
   -13.9050 -13.8844  -9.1862  -7.1651  -6.6765  -6.6764   0.4865   3.3708
     4.9277   5.5988   5.5988   6.3703   6.3703   6.4045   7.2488   9.1449
     9.1449   9.4643

          k = 0.3333 0.0000 0.1624 (  3081 PWs)   bands (ev):

   -14.2124 -14.2017 -14.0626 -13.9883 -13.9371 -13.9353 -13.9165 -13.9126
   -13.8973 -13.8834  -8.9722  -7.6353  -6.6126  -6.5298   0.9712   3.0491
     4.0838   4.6403   5.6116   5.6632   7.4180   7.6467   7.8488   9.0387
     9.1921   9.5426

          k = 0.3333 0.0000 0.3248 (  3084 PWs)   bands (ev):

   -14.2240 -14.2240 -14.0103 -14.0102 -13.9362 -13.9362 -13.9149 -13.9149
   -13.8909 -13.8909  -8.3881  -8.3880  -6.5080  -6.5079   2.1275   2.1276
     3.6754   3.6755   5.6231   5.6233   8.1303   8.1305   8.7362   8.7363
     9.3412   9.3412

          k = 0.3333 0.0000 0.4871 (  3081 PWs)   bands (ev):

   -14.2124 -14.2017 -14.0626 -13.9883 -13.9371 -13.9353 -13.9165 -13.9126
   -13.8973 -13.8834  -8.9722  -7.6353  -6.6126  -6.5298   0.9712   3.0491
     4.0838   4.6403   5.6116   5.6632   7.4180   7.6467   7.8488   9.0387
     9.1921   9.5426

          k = 0.3333 0.1624 0.0000 (  3081 PWs)   bands (ev):

   -14.2124 -14.2017 -14.0626 -13.9883 -13.9371 -13.9353 -13.9165 -13.9126
   -13.8973 -13.8834  -8.9722  -7.6353  -6.6126  -6.5298   0.9712   3.0491
     4.0838   4.6403   5.6116   5.6632   7.4180   7.6467   7.8488   9.0387
     9.1921   9.5426

          k = 0.3333 0.1624 0.1624 (  3084 PWs)   bands (ev):

   -14.2253 -14.1828 -14.0728 -13.9940 -13.9363 -13.9348 -13.9217 -13.9123
   -13.8912 -13.8881  -8.7697  -7.7607  -6.7555  -6.5002   1.1146   2.4291
     4.0010   5.1198   5.2108   6.3934   6.4875   8.2174   8.4500   8.9681
     9.2107   9.5958

          k = 0.3333 0.1624 0.3248 (  3078 PWs)   bands (ev):

   -14.2073 -14.2073 -14.0313 -14.0313 -13.9351 -13.9351 -13.9155 -13.9155
   -13.8882 -13.8882  -8.2552  -8.2552  -6.6547  -6.6546   1.5782   1.5784
     4.6551   4.6554   5.3659   5.3660   8.0419   8.0426   8.7956   8.7960
     9.4079   9.4080

          k = 0.3333 0.1624 0.4871 (  3084 PWs)   bands (ev):

   -14.2253 -14.1828 -14.0728 -13.9940 -13.9363 -13.9348 -13.9217 -13.9123
   -13.8912 -13.8881  -8.7697  -7.7608  -6.7554  -6.5002   1.1146   2.4291
     4.0010   5.1198   5.2108   6.3934   6.4875   8.2174   8.4500   8.9681
     9.2108   9.5958

          k = 0.3333 0.3248 0.0000 (  3084 PWs)   bands (ev):

   -14.2240 -14.2240 -14.0103 -14.0102 -13.9362 -13.9362 -13.9149 -13.9149
   -13.8909 -13.8909  -8.3881  -8.3880  -6.5080  -6.5079   2.1274   2.1276
     3.6754   3.6755   5.6230   5.6233   8.1303   8.1305   8.7362   8.7363
     9.3412   9.3412

          k = 0.3333 0.3248 0.1624 (  3078 PWs)   bands (ev):

   -14.2073 -14.2073 -14.0313 -14.0313 -13.9351 -13.9351 -13.9155 -13.9155
   -13.8882 -13.8882  -8.2552  -8.2552  -6.6547  -6.6546   1.5782   1.5784
     4.6551   4.6554   5.3659   5.3660   8.0419   8.0426   8.7956   8.7960
     9.4080   9.4080

          k = 0.3333 0.3248 0.3248 (  3064 PWs)   bands (ev):

   -14.1816 -14.1816 -14.0595 -14.0595 -13.9317 -13.9317 -13.9168 -13.9168
   -13.8834 -13.8834  -8.0919  -8.0917  -6.8326  -6.8325   1.2667   1.2669
     4.7484   4.7485   6.5950   6.5950   6.8228   6.8239   9.3081   9.3081
     9.3120   9.3120

          k = 0.3333 0.3248 0.4871 (  3078 PWs)   bands (ev):

   -14.2073 -14.2073 -14.0313 -14.0313 -13.9351 -13.9351 -13.9155 -13.9155
   -13.8882 -13.8882  -8.2553  -8.2551  -6.6547  -6.6546   1.5783   1.5783
     4.6550   4.6555   5.3659   5.3661   8.0419   8.0427   8.7958   8.7958
     9.4079   9.4080

          k = 0.3333 0.4871 0.0000 (  3081 PWs)   bands (ev):

   -14.2124 -14.2017 -14.0626 -13.9883 -13.9371 -13.9353 -13.9165 -13.9126
   -13.8973 -13.8834  -8.9722  -7.6353  -6.6126  -6.5298   0.9712   3.0491
     4.0838   4.6403   5.6116   5.6632   7.4180   7.6467   7.8488   9.0387
     9.1921   9.5426

          k = 0.3333 0.4871 0.1624 (  3084 PWs)   bands (ev):

   -14.2253 -14.1828 -14.0728 -13.9940 -13.9363 -13.9348 -13.9217 -13.9123
   -13.8912 -13.8881  -8.7697  -7.7608  -6.7554  -6.5002   1.1146   2.4291
     4.0010   5.1198   5.2108   6.3934   6.4875   8.2174   8.4500   8.9681
     9.2108   9.5958

          k = 0.3333 0.4871 0.3248 (  3078 PWs)   bands (ev):

   -14.2073 -14.2073 -14.0313 -14.0313 -13.9351 -13.9351 -13.9155 -13.9155
   -13.8882 -13.8882  -8.2553  -8.2551  -6.6547  -6.6546   1.5783   1.5783
     4.6550   4.6555   5.3659   5.3661   8.0419   8.0427   8.7958   8.7958
     9.4079   9.4080

          k = 0.3333 0.4871 0.4871 (  3084 PWs)   bands (ev):

   -14.2253 -14.1828 -14.0728 -13.9940 -13.9363 -13.9348 -13.9217 -13.9123
   -13.8912 -13.8881  -8.7697  -7.7607  -6.7555  -6.5002   1.1146   2.4291
     4.0010   5.1198   5.2108   6.3934   6.4875   8.2174   8.4500   8.9681
     9.2107   9.5958

          k = 0.5000-0.0000-0.0000 (  3046 PWs)   bands (ev):

   -14.2326 -14.2325 -14.0205 -14.0204 -13.9348 -13.9348 -13.8857 -13.8857
   -13.8835 -13.8835  -8.0821  -8.0818  -6.3969  -6.3969   1.3803   1.3808
     4.8969   4.8969   5.4847   5.4849   6.9224   6.9224   8.3599   8.3600
     8.6932   8.6932

          k = 0.5000-0.0000 0.1624 (  3068 PWs)   bands (ev):

   -14.2593 -14.2592 -13.9981 -13.9980 -13.9410 -13.9410 -13.8876 -13.8876
   -13.8833 -13.8833  -8.0332  -8.0329  -6.4524  -6.4523   1.4980   1.4983
     4.2884   4.2885   5.0785   5.0786   7.7613   7.7614   8.5644   8.5645
     8.9122   8.9122

          k = 0.5000 0.0000 0.3248 (  3088 PWs)   bands (ev):

   -14.2807 -14.2807 -13.9833 -13.9833 -13.9434 -13.9434 -13.8914 -13.8914
   -13.8827 -13.8827  -7.9800  -7.9799  -6.5118  -6.5118   1.6749   1.6749
     3.6108   3.6108   5.0600   5.0600   7.8631   7.8632   9.1399   9.1399
     9.1717   9.1717

          k = 0.5000 0.0000 0.4871 (  3068 PWs)   bands (ev):

   -14.2593 -14.2592 -13.9981 -13.9980 -13.9410 -13.9410 -13.8876 -13.8876
   -13.8833 -13.8833  -8.0332  -8.0329  -6.4524  -6.4523   1.4980   1.4983
     4.2884   4.2885   5.0785   5.0786   7.7613   7.7614   8.5644   8.5645
     8.9122   8.9122

          k = 0.5000 0.1624-0.0000 (  3068 PWs)   bands (ev):

   -14.2593 -14.2592 -13.9981 -13.9980 -13.9410 -13.9410 -13.8876 -13.8876
   -13.8833 -13.8833  -8.0332  -8.0329  -6.4524  -6.4523   1.4980   1.4983
     4.2884   4.2885   5.0785   5.0786   7.7613   7.7614   8.5644   8.5645
     8.9122   8.9122

          k = 0.5000 0.1624 0.1624 (  3080 PWs)   bands (ev):

   -14.2809 -14.2405 -14.0259 -13.9796 -13.9458 -13.9430 -13.8890 -13.8871
   -13.8844 -13.8838  -7.9860  -7.9678  -6.5030  -6.4678   0.8758   1.6794
     3.9826   4.3955   4.4758   6.4102   6.9553   8.6674   8.6682   8.7170
     8.8688   9.1625

          k = 0.5000 0.1624 0.3248 (  3088 PWs)   bands (ev):

   -14.2652 -14.2652 -14.0022 -14.0022 -13.9471 -13.9471 -13.8897 -13.8897
   -13.8859 -13.8859  -7.9165  -7.9164  -6.5233  -6.5232   0.9782   0.9783
     4.1531   4.1532   5.3140   5.3142   8.1368   8.1375   8.9215   8.9216
     9.2818   9.2819

          k = 0.5000 0.1624 0.4871 (  3080 PWs)   bands (ev):

   -14.2809 -14.2406 -14.0259 -13.9796 -13.9458 -13.9430 -13.8890 -13.8871
   -13.8844 -13.8838  -7.9859  -7.9678  -6.5031  -6.4677   0.8758   1.6794
     3.9826   4.3956   4.4758   6.4102   6.9553   8.6674   8.6682   8.7170
     8.8688   9.1625

          k = 0.5000 0.3248 0.0000 (  3088 PWs)   bands (ev):

   -14.2807 -14.2807 -13.9833 -13.9833 -13.9434 -13.9434 -13.8914 -13.8914
   -13.8827 -13.8827  -7.9800  -7.9799  -6.5118  -6.5118   1.6749   1.6749
     3.6108   3.6108   5.0600   5.0600   7.8631   7.8632   9.1399   9.1399
     9.1717   9.1717

          k = 0.5000 0.3248 0.1624 (  3088 PWs)   bands (ev):

   -14.2652 -14.2652 -14.0022 -14.0022 -13.9471 -13.9471 -13.8897 -13.8897
   -13.8859 -13.8859  -7.9165  -7.9164  -6.5233  -6.5232   0.9782   0.9783
     4.1531   4.1532   5.3140   5.3142   8.1368   8.1375   8.9215   8.9216
     9.2818   9.2819

          k = 0.5000 0.3248 0.3248 (  3112 PWs)   bands (ev):

   -14.2508 -14.2508 -14.0326 -14.0325 -13.9524 -13.9524 -13.8911 -13.8911
   -13.8884 -13.8884  -7.8501  -7.8499  -6.5371  -6.5371   0.5287   0.5288
     4.0048   4.0048   6.9302   6.9314   7.0111   7.0111   9.1826   9.1826
     9.3876   9.3876

          k = 0.5000 0.3248 0.4871 (  3088 PWs)   bands (ev):

   -14.2652 -14.2652 -14.0022 -14.0022 -13.9471 -13.9471 -13.8897 -13.8897
   -13.8859 -13.8859  -7.9165  -7.9164  -6.5233  -6.5232   0.9782   0.9783
     4.1531   4.1532   5.3140   5.3142   8.1368   8.1375   8.9215   8.9216
     9.2818   9.2819

          k = 0.5000 0.4871 0.0000 (  3068 PWs)   bands (ev):

   -14.2593 -14.2592 -13.9981 -13.9980 -13.9410 -13.9410 -13.8876 -13.8876
   -13.8833 -13.8833  -8.0332  -8.0329  -6.4524  -6.4523   1.4980   1.4983
     4.2884   4.2885   5.0785   5.0786   7.7613   7.7614   8.5644   8.5645
     8.9122   8.9122

          k = 0.5000 0.4871 0.1624 (  3080 PWs)   bands (ev):

   -14.2809 -14.2406 -14.0259 -13.9796 -13.9458 -13.9430 -13.8890 -13.8871
   -13.8844 -13.8838  -7.9859  -7.9678  -6.5031  -6.4677   0.8758   1.6794
     3.9826   4.3956   4.4758   6.4102   6.9553   8.6674   8.6682   8.7170
     8.8688   9.1625

          k = 0.5000 0.4871 0.3248 (  3088 PWs)   bands (ev):

   -14.2652 -14.2652 -14.0022 -14.0022 -13.9471 -13.9471 -13.8897 -13.8897
   -13.8859 -13.8859  -7.9165  -7.9164  -6.5233  -6.5232   0.9782   0.9783
     4.1531   4.1532   5.3140   5.3142   8.1368   8.1375   8.9215   8.9216
     9.2818   9.2819

          k = 0.5000 0.4871 0.4871 (  3080 PWs)   bands (ev):

   -14.2809 -14.2405 -14.0259 -13.9796 -13.9458 -13.9430 -13.8890 -13.8871
   -13.8844 -13.8838  -7.9860  -7.9678  -6.5030  -6.4678   0.8758   1.6794
     3.9826   4.3955   4.4758   6.4102   6.9553   8.6674   8.6682   8.7170
     8.8688   9.1625

          k = 0.6667-0.0000-0.0000 (  3094 PWs)   bands (ev):

   -14.1813 -14.1813 -14.1189 -13.9912 -13.9337 -13.9337 -13.9281 -13.9152
   -13.9050 -13.8844  -9.1862  -7.1651  -6.6765  -6.6764   0.4865   3.3708
     4.9277   5.5988   5.5988   6.3703   6.3703   6.4045   7.2488   9.1449
     9.1449   9.4643

          k = 0.6667-0.0000 0.1624 (  3081 PWs)   bands (ev):

   -14.2124 -14.2017 -14.0626 -13.9883 -13.9371 -13.9353 -13.9165 -13.9126
   -13.8973 -13.8834  -8.9722  -7.6353  -6.6126  -6.5298   0.9712   3.0491
     4.0838   4.6403   5.6116   5.6632   7.4180   7.6467   7.8488   9.0387
     9.1921   9.5426

          k = 0.6667 0.0000 0.3248 (  3084 PWs)   bands (ev):

   -14.2240 -14.2240 -14.0103 -14.0102 -13.9362 -13.9362 -13.9149 -13.9149
   -13.8909 -13.8909  -8.3881  -8.3880  -6.5080  -6.5079   2.1275   2.1276
     3.6754   3.6755   5.6231   5.6233   8.1303   8.1305   8.7362   8.7363
     9.3412   9.3412

          k = 0.6667 0.0000 0.4871 (  3081 PWs)   bands (ev):

   -14.2124 -14.2017 -14.0626 -13.9883 -13.9371 -13.9353 -13.9165 -13.9126
   -13.8973 -13.8834  -8.9722  -7.6353  -6.6126  -6.5298   0.9712   3.0491
     4.0838   4.6403   5.6116   5.6632   7.4180   7.6467   7.8488   9.0387
     9.1921   9.5426

          k = 0.6667 0.1624-0.0000 (  3081 PWs)   bands (ev):

   -14.2124 -14.2017 -14.0626 -13.9883 -13.9371 -13.9353 -13.9165 -13.9126
   -13.8973 -13.8834  -8.9722  -7.6353  -6.6126  -6.5298   0.9712   3.0491
     4.0838   4.6403   5.6116   5.6632   7.4180   7.6467   7.8488   9.0387
     9.1921   9.5426

          k = 0.6667 0.1624 0.1624 (  3084 PWs)   bands (ev):

   -14.2253 -14.1828 -14.0728 -13.9940 -13.9363 -13.9348 -13.9217 -13.9123
   -13.8912 -13.8881  -8.7697  -7.7607  -6.7555  -6.5002   1.1146   2.4291
     4.0010   5.1198   5.2108   6.3934   6.4875   8.2174   8.4500   8.9681
     9.2107   9.5958

          k = 0.6667 0.1624 0.3248 (  3078 PWs)   bands (ev):

   -14.2073 -14.2073 -14.0313 -14.0313 -13.9351 -13.9351 -13.9155 -13.9155
   -13.8882 -13.8882  -8.2553  -8.2551  -6.6547  -6.6546   1.5783   1.5783
     4.6550   4.6555   5.3659   5.3661   8.0419   8.0427   8.7958   8.7958
     9.4079   9.4080

          k = 0.6667 0.1624 0.4871 (  3084 PWs)   bands (ev):

   -14.2253 -14.1828 -14.0728 -13.9940 -13.9363 -13.9348 -13.9217 -13.9123
   -13.8912 -13.8881  -8.7697  -7.7608  -6.7554  -6.5002   1.1146   2.4291
     4.0010   5.1198   5.2108   6.3934   6.4875   8.2174   8.4500   8.9681
     9.2108   9.5958

          k = 0.6667 0.3248 0.0000 (  3084 PWs)   bands (ev):

   -14.2240 -14.2240 -14.0103 -14.0102 -13.9362 -13.9362 -13.9149 -13.9149
   -13.8909 -13.8909  -8.3881  -8.3880  -6.5080  -6.5079   2.1274   2.1276
     3.6754   3.6755   5.6230   5.6233   8.1303   8.1305   8.7362   8.7363
     9.3412   9.3412

          k = 0.6667 0.3248 0.1624 (  3078 PWs)   bands (ev):

   -14.2073 -14.2073 -14.0313 -14.0313 -13.9351 -13.9351 -13.9155 -13.9155
   -13.8882 -13.8882  -8.2553  -8.2551  -6.6547  -6.6546   1.5783   1.5783
     4.6550   4.6555   5.3659   5.3661   8.0419   8.0427   8.7958   8.7958
     9.4079   9.4080

          k = 0.6667 0.3248 0.3248 (  3064 PWs)   bands (ev):

   -14.1816 -14.1816 -14.0595 -14.0595 -13.9317 -13.9317 -13.9168 -13.9168
   -13.8834 -13.8834  -8.0919  -8.0917  -6.8326  -6.8325   1.2667   1.2669
     4.7484   4.7485   6.5950   6.5950   6.8228   6.8239   9.3081   9.3081
     9.3120   9.3120

          k = 0.6667 0.3248 0.4871 (  3078 PWs)   bands (ev):

   -14.2073 -14.2073 -14.0313 -14.0313 -13.9351 -13.9351 -13.9155 -13.9155
   -13.8882 -13.8882  -8.2552  -8.2552  -6.6547  -6.6546   1.5782   1.5784
     4.6551   4.6554   5.3659   5.3660   8.0419   8.0426   8.7956   8.7960
     9.4080   9.4080

          k = 0.6667 0.4871 0.0000 (  3081 PWs)   bands (ev):

   -14.2124 -14.2017 -14.0626 -13.9883 -13.9371 -13.9353 -13.9165 -13.9126
   -13.8973 -13.8834  -8.9722  -7.6353  -6.6126  -6.5298   0.9712   3.0491
     4.0838   4.6403   5.6116   5.6632   7.4180   7.6467   7.8488   9.0387
     9.1921   9.5426

          k = 0.6667 0.4871 0.1624 (  3084 PWs)   bands (ev):

   -14.2253 -14.1828 -14.0728 -13.9940 -13.9363 -13.9348 -13.9217 -13.9123
   -13.8912 -13.8881  -8.7697  -7.7608  -6.7554  -6.5002   1.1146   2.4291
     4.0010   5.1198   5.2108   6.3934   6.4875   8.2174   8.4500   8.9681
     9.2108   9.5958

          k = 0.6667 0.4871 0.3248 (  3078 PWs)   bands (ev):

   -14.2073 -14.2073 -14.0313 -14.0313 -13.9351 -13.9351 -13.9155 -13.9155
   -13.8882 -13.8882  -8.2552  -8.2552  -6.6547  -6.6546   1.5782   1.5784
     4.6551   4.6554   5.3659   5.3660   8.0419   8.0426   8.7956   8.7960
     9.4079   9.4080

          k = 0.6667 0.4871 0.4871 (  3084 PWs)   bands (ev):

   -14.2253 -14.1828 -14.0728 -13.9940 -13.9363 -13.9348 -13.9217 -13.9123
   -13.8912 -13.8881  -8.7697  -7.7607  -6.7555  -6.5002   1.1146   2.4291
     4.0010   5.1198   5.2108   6.3934   6.4875   8.2174   8.4500   8.9681
     9.2107   9.5958

          k = 0.8333-0.0000-0.0000 (  3097 PWs)   bands (ev):

   -14.2385 -14.0654 -14.0548 -14.0547 -13.9707 -13.9287 -13.9112 -13.9112
   -13.9094 -13.8819  -9.9814  -7.1903  -7.1903  -6.7908   0.4083   5.2509
     5.5138   5.5138   5.9989   6.4699   7.1323   7.4015   7.4015   9.6085
     9.6086  10.2355

          k = 0.8333-0.0000 0.1624 (  3079 PWs)   bands (ev):

   -14.2179 -14.1038 -14.0484 -14.0394 -13.9641 -13.9359 -13.9107 -13.9067
   -13.9049 -13.8840  -9.7205  -7.9737  -7.0284  -6.5241   0.9560   4.2033
     4.6778   5.4783   6.4735   6.8589   7.3675   7.7539   7.9896   9.1443
     9.5439  10.0466

          k = 0.8333 0.0000 0.3248 (  3088 PWs)   bands (ev):

   -14.1672 -14.1672 -14.0441 -14.0441 -13.9533 -13.9532 -13.9101 -13.9101
   -13.8943 -13.8943  -8.9895  -8.9894  -6.6827  -6.6826   2.3714   2.3715
     4.7858   4.7861   7.0365   7.0366   8.0813   8.0813   8.3564   8.3566
     9.5593   9.5595

          k = 0.8333 0.0000 0.4871 (  3079 PWs)   bands (ev):

   -14.2179 -14.1038 -14.0484 -14.0394 -13.9641 -13.9359 -13.9107 -13.9067
   -13.9049 -13.8840  -9.7205  -7.9737  -7.0284  -6.5241   0.9560   4.2033
     4.6778   5.4783   6.4735   6.8589   7.3675   7.7539   7.9896   9.1443
     9.5439  10.0466

          k = 0.8333 0.1624-0.0000 (  3079 PWs)   bands (ev):

   -14.2179 -14.1038 -14.0484 -14.0394 -13.9641 -13.9359 -13.9107 -13.9067
   -13.9049 -13.8840  -9.7205  -7.9737  -7.0284  -6.5241   0.9560   4.2033
     4.6778   5.4783   6.4735   6.8589   7.3675   7.7539   7.9896   9.1443
     9.5439  10.0466

          k = 0.8333 0.1624 0.1624 (  3076 PWs)   bands (ev):

   -14.2015 -14.1181 -14.0537 -14.0381 -13.9627 -13.9411 -13.9108 -13.9045
   -13.9008 -13.8869  -9.4669  -8.0646  -7.2850  -6.5832   1.4601   3.4778
     5.3575   5.6076   6.0276   6.6628   7.3194   7.9031   8.4269   8.8765
     9.4312   9.9503

          k = 0.8333 0.1624 0.3248 (  3070 PWs)   bands (ev):

   -14.1612 -14.1612 -14.0463 -14.0463 -13.9557 -13.9557 -13.9077 -13.9077
   -13.8899 -13.8899  -8.7874  -8.7873  -6.9865  -6.9865   2.5597   2.5598
     5.1842   5.1845   6.7240   6.7242   7.6057   7.6062   8.6280   8.6281
     9.5404   9.5406

          k = 0.8333 0.1624 0.4871 (  3076 PWs)   bands (ev):

   -14.2015 -14.1181 -14.0537 -14.0381 -13.9627 -13.9411 -13.9108 -13.9045
   -13.9008 -13.8869  -9.4669  -8.0646  -7.2849  -6.5832   1.4601   3.4778
     5.3575   5.6076   6.0277   6.6628   7.3193   7.9031   8.4269   8.8764
     9.4312   9.9503

          k = 0.8333 0.3248 0.0000 (  3088 PWs)   bands (ev):

   -14.1672 -14.1672 -14.0441 -14.0441 -13.9533 -13.9532 -13.9101 -13.9101
   -13.8943 -13.8943  -8.9895  -8.9894  -6.6827  -6.6826   2.3715   2.3715
     4.7858   4.7861   7.0365   7.0366   8.0813   8.0813   8.3564   8.3566
     9.5593   9.5595

          k = 0.8333 0.3248 0.1624 (  3070 PWs)   bands (ev):

   -14.1612 -14.1612 -14.0463 -14.0463 -13.9557 -13.9557 -13.9077 -13.9077
   -13.8899 -13.8899  -8.7874  -8.7873  -6.9865  -6.9865   2.5597   2.5598
     5.1842   5.1845   6.7240   6.7242   7.6057   7.6062   8.6280   8.6281
     9.5404   9.5406

          k = 0.8333 0.3248 0.3248 (  3056 PWs)   bands (ev):

   -14.1561 -14.1560 -14.0525 -14.0525 -13.9584 -13.9584 -13.9069 -13.9069
   -13.8873 -13.8873  -8.4946  -8.4944  -7.3774  -7.3774   2.7493   2.7495
     5.7807   5.7807   6.6667   6.6667   6.7365   6.7373   9.1512   9.1513
     9.1884   9.1884

          k = 0.8333 0.3248 0.4871 (  3070 PWs)   bands (ev):

   -14.1612 -14.1612 -14.0463 -14.0463 -13.9557 -13.9557 -13.9077 -13.9077
   -13.8899 -13.8899  -8.7874  -8.7873  -6.9866  -6.9864   2.5597   2.5598
     5.1843   5.1844   6.7240   6.7242   7.6056   7.6063   8.6278   8.6282
     9.5404   9.5406

          k = 0.8333 0.4871 0.0000 (  3079 PWs)   bands (ev):

   -14.2179 -14.1038 -14.0484 -14.0394 -13.9641 -13.9359 -13.9107 -13.9067
   -13.9049 -13.8840  -9.7205  -7.9737  -7.0284  -6.5241   0.9560   4.2033
     4.6778   5.4783   6.4735   6.8589   7.3675   7.7539   7.9896   9.1443
     9.5439  10.0466

          k = 0.8333 0.4871 0.1624 (  3076 PWs)   bands (ev):

   -14.2015 -14.1181 -14.0537 -14.0381 -13.9627 -13.9411 -13.9108 -13.9045
   -13.9008 -13.8869  -9.4669  -8.0646  -7.2849  -6.5832   1.4601   3.4778
     5.3575   5.6076   6.0277   6.6628   7.3193   7.9031   8.4269   8.8764
     9.4312   9.9503

          k = 0.8333 0.4871 0.3248 (  3070 PWs)   bands (ev):

   -14.1612 -14.1612 -14.0463 -14.0463 -13.9557 -13.9557 -13.9077 -13.9077
   -13.8899 -13.8899  -8.7874  -8.7873  -6.9866  -6.9864   2.5597   2.5598
     5.1843   5.1844   6.7240   6.7242   7.6056   7.6063   8.6278   8.6282
     9.5404   9.5406

          k = 0.8333 0.4871 0.4871 (  3076 PWs)   bands (ev):

   -14.2015 -14.1181 -14.0537 -14.0381 -13.9627 -13.9411 -13.9108 -13.9045
   -13.9008 -13.8869  -9.4669  -8.0646  -7.2850  -6.5832   1.4601   3.4778
     5.3575   5.6076   6.0276   6.6628   7.3194   7.9031   8.4269   8.8765
     9.4312   9.9503

     highest occupied level (ev):    10.4938

!    total energy              =    -489.95817810 Ry
     estimated scf accuracy    <          1.2E-09 Ry

     The total energy is the sum of the following terms:
     one-electron contribution =    -162.97673517 Ry
     hartree contribution      =     122.82655112 Ry
     xc contribution           =    -121.43925121 Ry
     ewald contribution        =    -328.25994553 Ry

     convergence has been achieved in  11 iterations

     Forces acting on atoms (cartesian axes, Ry/au):

     atom    1 type  1   force =     0.00642433    0.00001704    0.00001659
     atom    2 type  1   force =     0.00632663    0.00001109    0.00001163
     atom    3 type  2   force =    -0.00320135   -0.00085094   -0.00085087
     atom    4 type  2   force =    -0.00317408    0.00083218   -0.00088308
     atom    5 type  2   force =    -0.00320144    0.00087353    0.00087357
     atom    6 type  2   force =    -0.00317409   -0.00088289    0.00083215

     Total force =     0.011308     Total SCF correction =     0.000026
 
     init_run     :      0.66s CPU      0.73s WALL (       1 calls)
     electrons    :     38.80s CPU     49.60s WALL (       1 calls)
     forces       :      0.25s CPU      0.26s WALL (       1 calls)

     Called by init_run:
     wfcinit      :      0.57s CPU      0.62s WALL (       1 calls)
     potinit      :      0.03s CPU      0.03s WALL (       1 calls)
     hinit0       :      0.05s CPU      0.06s WALL (       1 calls)

     Called by electrons:
     c_bands      :     30.57s CPU     37.32s WALL (      11 calls)
     sum_band     :      1.85s CPU      1.92s WALL (      11 calls)
     v_of_rho     :      0.03s CPU      0.03s WALL (      12 calls)
     mix_rho      :      0.01s CPU      0.01s WALL (      11 calls)

     Called by c_bands:
     init_us_2    :      0.26s CPU      0.30s WALL (    2304 calls)
     cegterg      :     29.02s CPU     35.01s WALL (    1056 calls)

     Called by *egterg:
     cdiaghg      :      4.00s CPU      5.38s WALL (    4916 calls)
     h_psi        :     23.58s CPU     27.88s WALL (    5012 calls)
     g_psi        :      0.06s CPU      0.07s WALL (    3860 calls)

     Called by h_psi:
     h_psi:calbec :      0.58s CPU      0.61s WALL (    5012 calls)
     vloc_psi     :     10.00s CPU     10.61s WALL (    5012 calls)
     add_vuspsi   :      0.42s CPU      0.43s WALL (    5012 calls)

     General routines
     calbec       :      0.63s CPU      0.66s WALL (    5396 calls)
     fft          :      0.02s CPU      0.03s WALL (     130 calls)
     ffts         :      0.00s CPU      0.00s WALL (      11 calls)
     fftw         :     10.60s CPU     11.20s WALL (  202968 calls)
 
     Parallel routines

     Electric-field routines
     h_epsi_set   :      3.38s CPU      5.58s WALL (      11 calls)
     h_epsi_apply :     12.52s CPU     16.15s WALL (    4916 calls)
     c_phase_fiel :      2.96s CPU      4.74s WALL (      33 calls)
 
     PWSCF        :     39.75s CPU     50.64s WALL

 
   This run was terminated on:  15:33:59  19May2025            

=------------------------------------------------------------------------------=
   JOB DONE.
=------------------------------------------------------------------------------=
