
     Program PWSCF v.6.8 starts on 19May2025 at 15:32:19 

     This program is part of the open-source Quantum ESPRESSO suite
     for quantum simulation of materials; please cite
         "P. Giannozzi et al., J. Phys.:Condens. Matter 21 395502 (2009);
         "P. Giannozzi et al., J. Phys.:Condens. Matter 29 465901 (2017);
         "P. Giannozzi et al., J. Chem. Phys. 152 154105 (2020);
          URL http://www.quantum-espresso.org", 
     in publications or presentations arising from this work. More details at
     http://www.quantum-espresso.org/quote

     Parallel version (MPI & OpenMP), running on       8 processor cores
     Number of MPI processes:                 8
     Threads/MPI process:                     1

     MPI processes distributed on     1 nodes
     R & G space division:  proc/nbgrp/npool/nimage =       8
     188264 MiB available memory on the printing compute node when the environment starts
 
     Reading input from vc_relax.in
Warning: card &FCP ignored
Warning: card / ignored
Warning: card &RISM ignored
Warning: card / ignored

     Current dimensions of program PWSCF are:
     Max number of different atomic species (ntypx) = 10
     Max number of k-points (npk) =  40000
     Max angular momentum in pseudopotentials (lmaxx) =  4
     Message from routine setup:
     using ibrav=0 with symmetry is DISCOURAGED, use correct ibrav instead

     Subspace diagonalization in iterative solution of the eigenvalue problem:
     one sub-group per band group will be used
     scalapack distributed-memory algorithm (size of sub-group:  2*  2 procs)

 
     Parallelization info
     --------------------
     sticks:   dense  smooth     PW     G-vecs:    dense   smooth      PW
     Min         144     144     43                 4554     4554     733
     Max         145     145     44                 4556     4556     735
     Sum        1153    1153    345                36435    36435    5869
 
     Using Slab Decomposition
 


     bravais-lattice index     =            0
     lattice parameter (alat)  =       5.4235  a.u.
     unit-cell volume          =     376.6654 (a.u.)^3
     number of atoms/cell      =            6
     number of atomic types    =            2
     number of electrons       =        52.00
     number of Kohn-Sham states=           26
     kinetic-energy cutoff     =      80.0000  Ry
     charge density cutoff     =     320.0000  Ry
     scf convergence threshold =      1.0E-06
     mixing beta               =       0.4000
     number of iterations used =            8  plain     mixing
     energy convergence thresh.=      1.0E-04
     force convergence thresh. =      1.0E-03
     press convergence thresh. =      5.0E-01
     Exchange-correlation= PBE
                           (   1   4   3   4   0   0   0)
     nstep                     =           50


     celldm(1)=   5.423514  celldm(2)=   0.000000  celldm(3)=   0.000000
     celldm(4)=   0.000000  celldm(5)=   0.000000  celldm(6)=   0.000000

     crystal axes: (cart. coord. in units of alat)
               a(1) = (   1.000000   0.000000   0.000000 )  
               a(2) = (   0.000000   1.536585   0.000000 )  
               a(3) = (   0.000000   0.000000   1.536585 )  

     reciprocal axes: (cart. coord. in units 2 pi/alat)
               b(1) = (  1.000000  0.000000  0.000000 )  
               b(2) = (  0.000000  0.650794  0.000000 )  
               b(3) = (  0.000000  0.000000  0.650794 )  


     PseudoPot. # 1 for Ge read from file:
     ./Ge.upf
     MD5 check sum: 087fa14d6c89b52166990835c3b338da
     Pseudo is Norm-conserving + core correction, Zval = 14.0
     Generated using ONCVPSP code by D. R. Hamann
     Using radial grid of 1560 points,  6 beta functions with: 
                l(1) =   0
                l(2) =   0
                l(3) =   1
                l(4) =   1
                l(5) =   2
                l(6) =   2

     PseudoPot. # 2 for O  read from file:
     ./O.upf
     MD5 check sum: 9db02a5ece9d56b81b65a73f8163743d
     Pseudo is Norm-conserving + core correction, Zval =  6.0
     Generated using ONCVPSP code by D. R. Hamann
     Using radial grid of  936 points,  5 beta functions with: 
                l(1) =   0
                l(2) =   0
                l(3) =   1
                l(4) =   1
                l(5) =   2

     atomic species   valence    mass     pseudopotential
        Ge            14.00    72.63000     Ge( 1.00)
        O              6.00    15.99900     O ( 1.00)

      2 Sym. Ops. (no inversion) found



   Cartesian axes

     site n.     atom                  positions (alat units)
         1           Ge  tau(   1) = (   0.5011349   0.7687150   0.7687150  )
         2           Ge  tau(   2) = (   0.0000000   0.0000000   0.0000000  )
         3           O   tau(   3) = (   0.0000000   1.0673289   1.0673289  )
         4           O   tau(   4) = (   0.5011349   1.2388162   0.2986139  )
         5           O   tau(   5) = (   0.0000000   0.4701012   0.4701012  )
         6           O   tau(   6) = (   0.5011349   0.2986139   1.2388162  )

     number of k points=    34
                       cart. coord. in units 2pi/alat
        k(    1) = (   0.0000000   0.0000000   0.0000000), wk =   0.0208333
        k(    2) = (   0.0000000   0.0000000   0.1626984), wk =   0.0833333
        k(    3) = (   0.0000000   0.0000000  -0.3253968), wk =   0.0416667
        k(    4) = (   0.0000000   0.1626984   0.1626984), wk =   0.0416667
        k(    5) = (   0.0000000   0.1626984  -0.3253968), wk =   0.0833333
        k(    6) = (   0.0000000  -0.3253968  -0.3253968), wk =   0.0208333
        k(    7) = (   0.1666667   0.0000000   0.0000000), wk =   0.0416667
        k(    8) = (   0.1666667   0.0000000   0.1626984), wk =   0.0833333
        k(    9) = (   0.1666667   0.0000000  -0.3253968), wk =   0.0833333
        k(   10) = (   0.1666667   0.1626984   0.1626984), wk =   0.0416667
        k(   11) = (   0.1666667   0.1626984  -0.3253968), wk =   0.0833333
        k(   12) = (   0.1666667  -0.3253968  -0.3253968), wk =   0.0416667
        k(   13) = (   0.3333333   0.0000000   0.0000000), wk =   0.0416667
        k(   14) = (   0.3333333   0.0000000   0.1626984), wk =   0.0833333
        k(   15) = (   0.3333333   0.0000000  -0.3253968), wk =   0.0833333
        k(   16) = (   0.3333333   0.1626984   0.1626984), wk =   0.0416667
        k(   17) = (   0.3333333   0.1626984  -0.3253968), wk =   0.0833333
        k(   18) = (   0.3333333  -0.3253968  -0.3253968), wk =   0.0416667
        k(   19) = (  -0.5000000   0.0000000   0.0000000), wk =   0.0208333
        k(   20) = (  -0.5000000   0.0000000   0.1626984), wk =   0.0833333
        k(   21) = (  -0.5000000   0.0000000  -0.3253968), wk =   0.0416667
        k(   22) = (  -0.5000000   0.1626984   0.1626984), wk =   0.0416667
        k(   23) = (  -0.5000000   0.1626984  -0.3253968), wk =   0.0833333
        k(   24) = (  -0.5000000  -0.3253968  -0.3253968), wk =   0.0208333
        k(   25) = (   0.0000000   0.1626984  -0.1626984), wk =   0.0416667
        k(   26) = (   0.1666667   0.0000000  -0.1626984), wk =   0.0833333
        k(   27) = (  -0.1666667   0.1626984  -0.1626984), wk =   0.0833333
        k(   28) = (   0.1666667  -0.1626984  -0.1626984), wk =   0.0416667
        k(   29) = (  -0.1666667   0.1626984   0.3253968), wk =   0.0833333
        k(   30) = (   0.3333333   0.0000000  -0.1626984), wk =   0.0833333
        k(   31) = (  -0.3333333   0.1626984  -0.1626984), wk =   0.0833333
        k(   32) = (   0.3333333  -0.1626984  -0.1626984), wk =   0.0416667
        k(   33) = (  -0.3333333   0.1626984   0.3253968), wk =   0.0833333
        k(   34) = (   0.5000000   0.1626984  -0.1626984), wk =   0.0416667

     Dense  grid:    36435 G-vectors     FFT dimensions: (  32,  48,  48)

     Estimated max dynamical RAM per process >      18.03 MB

     Estimated total dynamical RAM >     144.21 MB

     Check: negative core charge=   -0.000001

     Initial potential from superposition of free atoms

     starting charge   51.99834, renormalised to   52.00000
     Starting wfcs are   34 randomized atomic wfcs

     total cpu time spent up to now is        0.6 secs

     Self-consistent Calculation

     iteration #  1     ecut=    80.00 Ry     beta= 0.40
     Davidson diagonalization with overlap
     ethr =  1.00E-02,  avg # of iterations =  2.0

     total cpu time spent up to now is        1.1 secs

     total energy              =    -489.69574726 Ry
     estimated scf accuracy    <       1.30726131 Ry

     iteration #  2     ecut=    80.00 Ry     beta= 0.40
     Davidson diagonalization with overlap
     ethr =  2.51E-03,  avg # of iterations =  2.0

     total cpu time spent up to now is        1.7 secs

     total energy              =    -489.98289292 Ry
     estimated scf accuracy    <       0.03200834 Ry

     iteration #  3     ecut=    80.00 Ry     beta= 0.40
     Davidson diagonalization with overlap
     ethr =  6.16E-05,  avg # of iterations =  3.4

     total cpu time spent up to now is        2.3 secs

     total energy              =    -489.98493518 Ry
     estimated scf accuracy    <       0.01312048 Ry

     iteration #  4     ecut=    80.00 Ry     beta= 0.40
     Davidson diagonalization with overlap
     ethr =  2.52E-05,  avg # of iterations =  2.0

     total cpu time spent up to now is        2.9 secs

     total energy              =    -489.98596590 Ry
     estimated scf accuracy    <       0.00230887 Ry

     iteration #  5     ecut=    80.00 Ry     beta= 0.40
     Davidson diagonalization with overlap
     ethr =  4.44E-06,  avg # of iterations =  2.0

     total cpu time spent up to now is        3.5 secs

     total energy              =    -489.98638836 Ry
     estimated scf accuracy    <       0.00002102 Ry

     iteration #  6     ecut=    80.00 Ry     beta= 0.40
     Davidson diagonalization with overlap
     ethr =  4.04E-08,  avg # of iterations =  5.2

     total cpu time spent up to now is        4.3 secs

     total energy              =    -489.98638664 Ry
     estimated scf accuracy    <       0.00012124 Ry

     iteration #  7     ecut=    80.00 Ry     beta= 0.40
     Davidson diagonalization with overlap
     ethr =  4.04E-08,  avg # of iterations =  4.1

     total cpu time spent up to now is        5.1 secs

     End of self-consistent calculation

          k = 0.0000 0.0000 0.0000 (  4571 PWs)   bands (ev):

   -13.5532 -13.3320 -13.1908 -13.1861 -13.1816 -13.1034 -13.0984 -13.0786
   -13.0731 -13.0589  -9.8952  -6.8890  -6.8852  -6.0366   0.8893   5.6848
     5.6950   6.2749   6.6062   7.8228   8.7485   9.1403   9.1407  10.3517
    10.3538  11.1721

          k = 0.0000 0.0000 0.1627 (  4528 PWs)   bands (ev):

   -13.5196 -13.3596 -13.1849 -13.1845 -13.1799 -13.1272 -13.0920 -13.0805
   -13.0749 -13.0637  -9.6110  -7.6833  -6.6659  -5.8656   1.3800   4.4934
     6.0934   6.5313   7.1780   8.1289   8.3536   9.1922   9.2090   9.3527
    10.3384  10.7887

          k = 0.0000 0.0000-0.3254 (  4548 PWs)   bands (ev):

   -13.4388 -13.4357 -13.1830 -13.1781 -13.1667 -13.1616 -13.0825 -13.0798
   -13.0767 -13.0744  -8.8141  -8.8023  -6.1722  -6.1654   2.7179   2.7305
     7.2210   7.2323   7.2904   7.2958   8.2970   8.3006   9.3405   9.3455
    10.3435  10.3520

          k = 0.0000 0.1627 0.1627 (  4571 PWs)   bands (ev):

   -13.4996 -13.3848 -13.1830 -13.1821 -13.1800 -13.1426 -13.0872 -13.0784
   -13.0767 -13.0668  -9.3272  -7.7194  -7.0018  -6.0001   1.9467   4.5371
     5.7966   6.7531   7.5692   7.9231   8.1463   8.9458   9.0891   9.3672
    10.0826  10.5091

          k = 0.0000 0.1627-0.3254 (  4566 PWs)   bands (ev):

   -13.4466 -13.4436 -13.1851 -13.1804 -13.1688 -13.1637 -13.0803 -13.0789
   -13.0747 -13.0735  -8.5633  -8.5515  -6.5790  -6.5722   3.3035   3.3150
     6.7937   6.8015   7.3190   7.3300   8.4831   8.4874   9.1963   9.2004
    10.0565  10.0652

          k = 0.0000-0.3254-0.3254 (  4560 PWs)   bands (ev):

   -13.4543 -13.4514 -13.1871 -13.1826 -13.1707 -13.1656 -13.0781 -13.0780
   -13.0727 -13.0726  -8.1661  -8.1543  -7.1189  -7.1149   4.1027   4.1102
     6.0730   6.0814   7.4334   7.4439   8.7816   8.7833   9.0380   9.0387
     9.6668   9.6736

          k = 0.1667 0.0000 0.0000 (  4555 PWs)   bands (ev):

   -13.4871 -13.2715 -13.2631 -13.2586 -13.1685 -13.1078 -13.0950 -13.0930
   -13.0893 -13.0588  -9.6050  -6.6239  -6.6192  -6.1055   0.8537   5.7689
     5.9890   5.9990   6.6362   6.8970   7.8547   7.9973   7.9983  10.2529
    10.2536  10.8887

          k = 0.1667 0.0000 0.1627 (  4553 PWs)   bands (ev):

   -13.4626 -13.3221 -13.2558 -13.2439 -13.1618 -13.1218 -13.0949 -13.0891
   -13.0856 -13.0627  -9.3270  -7.4514  -6.4370  -5.8433   1.4174   4.7140
     5.1563   6.0721   6.9739   7.3929   7.9919   8.3373   8.6069   9.7811
    10.1829  10.6996

          k = 0.1667 0.0000-0.3254 (  4540 PWs)   bands (ev):

   -13.3995 -13.3974 -13.2471 -13.2445 -13.1458 -13.1418 -13.0948 -13.0899
   -13.0761 -13.0711  -8.5504  -8.5389  -6.0413  -6.0348   2.8614   2.8731
     5.2987   5.3060   7.5884   7.5913   8.7022   8.7084   8.9534   8.9560
    10.1964  10.2046

          k = 0.1667 0.1627 0.1627 (  4557 PWs)   bands (ev):

   -13.4437 -13.3423 -13.2597 -13.2446 -13.1606 -13.1291 -13.0960 -13.0889
   -13.0827 -13.0652  -9.0530  -7.5333  -6.7286  -5.9208   1.9506   3.9873
     5.9272   6.1064   6.6216   7.1711   7.9124   8.4575   9.0476   9.5242
    10.0563  10.6032

          k = 0.1667 0.1627-0.3254 (  4554 PWs)   bands (ev):

   -13.3958 -13.3933 -13.2555 -13.2520 -13.1509 -13.1461 -13.0952 -13.0899
   -13.0758 -13.0706  -8.3237  -8.3123  -6.3892  -6.3827   3.0881   3.0985
     5.7058   5.7127   7.2633   7.2648   8.2234   8.2302   9.2132   9.2166
    10.1740  10.1814

          k = 0.1667-0.3254-0.3254 (  4568 PWs)   bands (ev):

   -13.3916 -13.3884 -13.2651 -13.2607 -13.1554 -13.1502 -13.0953 -13.0896
   -13.0755 -13.0700  -7.9868  -7.9757  -6.8395  -6.8347   3.3142   3.3233
     6.2968   6.3036   7.1909   7.1944   7.3602   7.3663   9.7473   9.7537
     9.8042   9.8043

          k = 0.3333 0.0000 0.0000 (  4520 PWs)   bands (ev):

   -13.4096 -13.4057 -13.3477 -13.1924 -13.1238 -13.1181 -13.1136 -13.0990
   -13.0806 -13.0604  -8.7594  -6.5367  -6.0609  -6.0546   0.9459   3.9762
     5.4577   6.1201   6.1209   6.8851   6.8958   7.0422   7.7157   9.7594
     9.7603  10.0619

          k = 0.3333 0.0000 0.1627 (  4543 PWs)   bands (ev):

   -13.4525 -13.4365 -13.2806 -13.1873 -13.1288 -13.1253 -13.1046 -13.0954
   -13.0767 -13.0621  -8.5298  -7.0716  -5.9834  -5.8819   1.4630   3.6311
     4.5431   5.1494   6.1273   6.1993   7.9898   8.2214   8.3749   9.6464
     9.8278  10.1548

          k = 0.3333 0.0000-0.3254 (  4554 PWs)   bands (ev):

   -13.4696 -13.4673 -13.2116 -13.2096 -13.1320 -13.1297 -13.0973 -13.0949
   -13.0709 -13.0656  -7.9022  -7.8929  -5.8637  -5.8571   2.6877   2.6943
     4.1025   4.1049   6.1453   6.1490   8.6949   8.6968   9.3607   9.3649
     9.9567   9.9621

          k = 0.3333 0.1627 0.1627 (  4548 PWs)   bands (ev):

   -13.4707 -13.4078 -13.2925 -13.1928 -13.1293 -13.1250 -13.1044 -13.0968
   -13.0744 -13.0631  -8.3085  -7.2027  -6.1456  -5.8515   1.6116   2.9525
     4.4813   5.5971   5.7425   6.9230   7.0953   8.7575   9.0474   9.6068
     9.8294  10.2216

          k = 0.3333 0.1627-0.3254 (  4558 PWs)   bands (ev):

   -13.4464 -13.4437 -13.2417 -13.2394 -13.1288 -13.1256 -13.1027 -13.0995
   -13.0707 -13.0654  -7.7494  -7.7403  -6.0323  -6.0256   2.0711   2.0795
     5.1487   5.1523   5.8759   5.8801   8.6639   8.6687   9.3901   9.3947
    10.0315  10.0375

          k = 0.3333-0.3254-0.3254 (  4544 PWs)   bands (ev):

   -13.4136 -13.4097 -13.2827 -13.2792 -13.1248 -13.1191 -13.1100 -13.1045
   -13.0705 -13.0650  -7.5578  -7.5494  -6.2406  -6.2342   1.7419   1.7508
     5.2009   5.2017   7.1313   7.1420   7.4787   7.4803   9.9157   9.9205
     9.9448   9.9451

          k =-0.5000 0.0000 0.0000 (  4544 PWs)   bands (ev):

   -13.4788 -13.4752 -13.2370 -13.2328 -13.1377 -13.1320 -13.0757 -13.0705
   -13.0699 -13.0651  -7.5734  -7.5496  -5.7564  -5.7492   1.8866   1.9210
     5.3851   5.3871   6.0482   6.0594   7.4512   7.4632   8.8707   8.8905
     9.2805   9.2812

          k =-0.5000 0.0000 0.1627 (  4558 PWs)   bands (ev):

   -13.5084 -13.5054 -13.2057 -13.2025 -13.1382 -13.1331 -13.0733 -13.0694
   -13.0678 -13.0640  -7.5178  -7.4998  -5.8173  -5.8100   2.0207   2.0450
     4.7675   4.7777   5.5761   5.5809   8.3223   8.3308   9.1294   9.1476
     9.5030   9.5099

          k =-0.5000 0.0000-0.3254 (  4556 PWs)   bands (ev):

   -13.5327 -13.5301 -13.1822 -13.1804 -13.1357 -13.1316 -13.0713 -13.0681
   -13.0660 -13.0629  -7.4533  -7.4494  -5.8835  -5.8763   2.2377   2.2437
     4.0368   4.0407   5.5595   5.5640   8.4078   8.4081   9.7678   9.7707
     9.7822   9.7852

          k =-0.5000 0.1627 0.1627 (  4538 PWs)   bands (ev):

   -13.5326 -13.4777 -13.2415 -13.1741 -13.1390 -13.1344 -13.0711 -13.0692
   -13.0689 -13.0631  -7.4582  -7.4297  -5.8716  -5.8280   1.3458   2.2380
     4.4448   4.8412   4.9570   7.0121   7.5056   9.2796   9.2845   9.3117
     9.4355   9.7560

          k =-0.5000 0.1627-0.3254 (  4564 PWs)   bands (ev):

   -13.5106 -13.5077 -13.2085 -13.2056 -13.1387 -13.1335 -13.0727 -13.0682
   -13.0672 -13.0628  -7.3760  -7.3717  -5.8960  -5.8887   1.4504   1.4569
     4.5970   4.5992   5.8568   5.8618   8.7378   8.7408   9.5511   9.5538
     9.8895   9.8909

          k =-0.5000-0.3254-0.3254 (  4552 PWs)   bands (ev):

   -13.4835 -13.4800 -13.2421 -13.2385 -13.1389 -13.1332 -13.0744 -13.0686
   -13.0680 -13.0625  -7.2939  -7.2893  -5.9123  -5.9049   0.9608   0.9677
     4.4220   4.4235   7.5627   7.5756   7.6035   7.6066   9.8266   9.8287
    10.0054  10.0073

          k = 0.0000 0.1627-0.1627 (  4571 PWs)   bands (ev):

   -13.4997 -13.3845 -13.1866 -13.1810 -13.1781 -13.1418 -13.0872 -13.0825
   -13.0729 -13.0668  -9.3278  -7.7149  -7.0057  -6.0006   1.9500   4.5384
     5.7887   6.7524   7.5666   7.9248   8.1533   8.9456   9.0885   9.3667
    10.0829  10.5084

          k = 0.1667 0.0000-0.1627 (  4553 PWs)   bands (ev):

   -13.4626 -13.3221 -13.2558 -13.2439 -13.1618 -13.1218 -13.0949 -13.0891
   -13.0856 -13.0627  -9.3270  -7.4514  -6.4370  -5.8433   1.4174   4.7140
     5.1562   6.0721   6.9739   7.3929   7.9918   8.3373   8.6069   9.7812
    10.1829  10.6996

          k =-0.1667 0.1627-0.1627 (  4557 PWs)   bands (ev):

   -13.4439 -13.3405 -13.2641 -13.2422 -13.1596 -13.1299 -13.0943 -13.0911
   -13.0818 -13.0653  -9.0538  -7.5285  -6.7333  -5.9206   1.9514   3.9909
     5.9314   6.0985   6.6211   7.1697   7.9097   8.4551   9.0528   9.5238
    10.0578  10.6027

          k = 0.1667-0.1627-0.1627 (  4557 PWs)   bands (ev):

   -13.4437 -13.3423 -13.2597 -13.2446 -13.1606 -13.1291 -13.0960 -13.0889
   -13.0827 -13.0652  -9.0530  -7.5333  -6.7286  -5.9208   1.9506   3.9873
     5.9273   6.1064   6.6215   7.1710   7.9124   8.4575   9.0475   9.5243
    10.0563  10.6032

          k =-0.1667 0.1627 0.3254 (  4554 PWs)   bands (ev):

   -13.3958 -13.3933 -13.2555 -13.2520 -13.1509 -13.1461 -13.0952 -13.0899
   -13.0758 -13.0706  -8.3237  -8.3123  -6.3892  -6.3827   3.0881   3.0985
     5.7058   5.7127   7.2633   7.2648   8.2234   8.2302   9.2132   9.2166
    10.1740  10.1814

          k = 0.3333 0.0000-0.1627 (  4543 PWs)   bands (ev):

   -13.4525 -13.4365 -13.2806 -13.1873 -13.1288 -13.1253 -13.1047 -13.0954
   -13.0767 -13.0621  -8.5298  -7.0716  -5.9834  -5.8819   1.4630   3.6312
     4.5431   5.1495   6.1272   6.1994   7.9897   8.2213   8.3749   9.6464
     9.8279  10.1548

          k =-0.3333 0.1627-0.1627 (  4548 PWs)   bands (ev):

   -13.4684 -13.4117 -13.2898 -13.1940 -13.1316 -13.1195 -13.1094 -13.0951
   -13.0740 -13.0634  -8.3095  -7.1988  -6.1520  -5.8481   1.6069   2.9606
     4.4835   5.5980   5.7409   6.9132   7.0957   8.7556   9.0508   9.6081
     9.8297  10.2222

          k = 0.3333-0.1627-0.1627 (  4548 PWs)   bands (ev):

   -13.4707 -13.4078 -13.2925 -13.1928 -13.1293 -13.1250 -13.1044 -13.0968
   -13.0744 -13.0631  -8.3085  -7.2027  -6.1456  -5.8515   1.6116   2.9524
     4.4813   5.5971   5.7424   6.9230   7.0953   8.7575   9.0473   9.6068
     9.8294  10.2216

          k =-0.3333 0.1627 0.3254 (  4558 PWs)   bands (ev):

   -13.4464 -13.4437 -13.2417 -13.2394 -13.1288 -13.1256 -13.1027 -13.0995
   -13.0707 -13.0654  -7.7494  -7.7403  -6.0323  -6.0256   2.0712   2.0795
     5.1488   5.1523   5.8759   5.8801   8.6639   8.6687   9.3902   9.3947
    10.0315  10.0375

          k = 0.5000 0.1627-0.1627 (  4538 PWs)   bands (ev):

   -13.5300 -13.4812 -13.2380 -13.1769 -13.1393 -13.1334 -13.0747 -13.0685
   -13.0659 -13.0637  -7.4618  -7.4259  -5.8644  -5.8353   1.3396   2.2447
     4.4490   4.8429   4.9541   7.0135   7.4943   9.2817   9.2876   9.3150
     9.4327   9.7563

     highest occupied level (ev):    11.1721

!    total energy              =    -489.98640662 Ry
     estimated scf accuracy    <       0.00000099 Ry

     The total energy is the sum of the following terms:
     one-electron contribution =    -156.17761831 Ry
     hartree contribution      =     120.82253744 Ry
     xc contribution           =    -121.70540374 Ry
     ewald contribution        =    -332.92592201 Ry

     convergence has been achieved in   7 iterations

     Forces acting on atoms (cartesian axes, Ry/au):

     atom    1 type  1   force =    -0.00242884   -0.00056728   -0.00056728
     atom    2 type  1   force =     0.00246067    0.00094648    0.00094648
     atom    3 type  2   force =     0.00202406   -0.00007297   -0.00007297
     atom    4 type  2   force =    -0.00204266   -0.00208588    0.00200314
     atom    5 type  2   force =     0.00202944   -0.00022349   -0.00022349
     atom    6 type  2   force =    -0.00204266    0.00200314   -0.00208588

     Total force =     0.006913     Total SCF correction =     0.001094
     SCF correction compared to forces is large: reduce conv_thr to get better values


     Computing stress (Cartesian axis) and pressure

          total   stress  (Ry/bohr**3)                   (kbar)     P=       99.17
   0.00078764  -0.00000001  -0.00000001          115.87       -0.00       -0.00
  -0.00000001   0.00061735   0.00000020           -0.00       90.82        0.03
  -0.00000001   0.00000020   0.00061735           -0.00        0.03       90.82


     BFGS Geometry Optimization
     Energy error            =      0.0E+00 Ry
     Gradient error          =      2.5E-03 Ry/Bohr
     Cell gradient error     =      1.2E+02 kbar

     number of scf cycles    =   1
     number of bfgs steps    =   0

     enthalpy           new  =    -489.9864066153 Ry

     new trust radius        =       0.0764322743 bohr
     new conv_thr            =       0.0000010000 Ry

     new unit-cell volume =    396.02951 a.u.^3 (    58.68552 Ang^3 )
     density =      5.92101 g/cm^3

CELL_PARAMETERS (angstrom)
   2.926513323  -0.000000404  -0.000000404
  -0.000000621   4.478063221   0.000022157
  -0.000000621   0.000022157   4.478063221

ATOMIC_POSITIONS (angstrom)
Ge            1.4652667519        2.2399685494        2.2399685494
Ge            0.0013277713        0.0005085905        0.0005085905
O             0.0010913118        3.1104875916        3.1104875916
O             1.4654751312        3.6091593412        0.8713429499
O             0.0010946997        1.3699002619        1.3699002619
O             1.4654751312        0.8713429499        3.6091593412



     Writing output data file ./out/ge.save/
     NEW-OLD atomic charge density approx. for the potential

     Check: negative core charge=   -0.000002

     negative rho (up, down):  5.055E-07 0.000E+00
     extrapolated charge   54.54250, renormalised to   52.00000

     total cpu time spent up to now is        5.9 secs

     Self-consistent Calculation

     iteration #  1     ecut=    80.00 Ry     beta= 0.40
     Davidson diagonalization with overlap
     ethr =  1.00E-06,  avg # of iterations =  8.0

     total cpu time spent up to now is        7.2 secs

     total energy              =    -489.72698651 Ry
     estimated scf accuracy    <       0.14358505 Ry

     iteration #  2     ecut=    80.00 Ry     beta= 0.40
     Davidson diagonalization with overlap
     ethr =  2.76E-04,  avg # of iterations =  3.0

     total cpu time spent up to now is        8.0 secs

     total energy              =    -490.00032883 Ry
     estimated scf accuracy    <       0.07403613 Ry

     iteration #  3     ecut=    80.00 Ry     beta= 0.40
     Davidson diagonalization with overlap
     ethr =  1.42E-04,  avg # of iterations =  1.0

     total cpu time spent up to now is        8.5 secs

     total energy              =    -489.98596739 Ry
     estimated scf accuracy    <       0.03074381 Ry

     iteration #  4     ecut=    80.00 Ry     beta= 0.40
     Davidson diagonalization with overlap
     ethr =  5.91E-05,  avg # of iterations =  2.0

     total cpu time spent up to now is        9.1 secs

     total energy              =    -489.99384116 Ry
     estimated scf accuracy    <       0.00206411 Ry

     iteration #  5     ecut=    80.00 Ry     beta= 0.40
     Davidson diagonalization with overlap
     ethr =  3.97E-06,  avg # of iterations =  3.0

     total cpu time spent up to now is        9.8 secs

     total energy              =    -489.98889007 Ry
     estimated scf accuracy    <       0.01005297 Ry

     iteration #  6     ecut=    80.00 Ry     beta= 0.40
     Davidson diagonalization with overlap
     ethr =  3.97E-06,  avg # of iterations =  3.0

     total cpu time spent up to now is       10.5 secs

     total energy              =    -489.99065471 Ry
     estimated scf accuracy    <       0.00001770 Ry

     iteration #  7     ecut=    80.00 Ry     beta= 0.40
     Davidson diagonalization with overlap
     ethr =  3.40E-08,  avg # of iterations =  6.2

     total cpu time spent up to now is       11.5 secs

     total energy              =    -489.99062857 Ry
     estimated scf accuracy    <       0.00028801 Ry

     iteration #  8     ecut=    80.00 Ry     beta= 0.40
     Davidson diagonalization with overlap
     ethr =  3.40E-08,  avg # of iterations =  4.1

     total cpu time spent up to now is       12.3 secs

     total energy              =    -489.99065440 Ry
     estimated scf accuracy    <       0.00001583 Ry

     iteration #  9     ecut=    80.00 Ry     beta= 0.40
     Davidson diagonalization with overlap
     ethr =  3.04E-08,  avg # of iterations =  2.0

     total cpu time spent up to now is       12.9 secs

     total energy              =    -489.99065543 Ry
     estimated scf accuracy    <       0.00000155 Ry

     iteration # 10     ecut=    80.00 Ry     beta= 0.40
     Davidson diagonalization with overlap
     ethr =  2.98E-09,  avg # of iterations =  2.9

     total cpu time spent up to now is       13.6 secs

     End of self-consistent calculation

          k = 0.0000 0.0000 0.0000 (  4571 PWs)   bands (ev):

   -14.3838 -14.2013 -14.0945 -14.0827 -14.0821 -14.0237 -14.0173 -13.9980
   -13.9973 -13.9862 -10.2873  -7.5038  -7.5035  -6.7542   0.2596   5.1061
     5.1075   5.6058   6.0677   7.0719   7.9664   8.3319   8.3320   9.5475
     9.5478  10.3285

          k = 0.0000-0.0000 0.1602 (  4528 PWs)   bands (ev):

   -14.3555 -14.2235 -14.0895 -14.0813 -14.0807 -14.0428 -14.0122 -13.9995
   -13.9988 -13.9901 -10.0210  -8.2314  -7.3088  -6.6045   0.7676   3.8943
     5.4682   5.8500   6.5816   7.3727   7.5881   8.3721   8.3979   8.5375
     9.5354   9.9663

          k =-0.0000 0.0000-0.3205 (  4548 PWs)   bands (ev):

   -14.2872 -14.2867 -14.0798 -14.0792 -14.0730 -14.0724 -14.0012 -14.0009
   -14.0004 -14.0002  -9.2734  -9.2705  -6.8723  -6.8707   2.1218   2.1262
     6.5114   6.5134   6.5526   6.5549   7.5995   7.6003   8.5275   8.5282
     9.5492   9.5515

          k = 0.0000 0.1602 0.1602 (  4571 PWs)   bands (ev):

   -14.3382 -14.2433 -14.0858 -14.0825 -14.0798 -14.0548 -14.0083 -14.0004
   -13.9978 -13.9927  -9.7582  -8.2750  -7.6046  -6.7229   1.3193   3.8423
     5.2094   6.0612   6.9432   7.1779   7.3480   8.1736   8.2838   8.5513
     9.3041   9.7027

          k =-0.0000 0.1602-0.3205 (  4566 PWs)   bands (ev):

   -14.2924 -14.2920 -14.0817 -14.0811 -14.0745 -14.0739 -14.0002 -13.9995
   -13.9993 -13.9986  -9.0478  -9.0451  -7.2296  -7.2279   2.6351   2.6388
     6.0936   6.0961   6.6055   6.6073   7.7734   7.7745   8.3895   8.3901
     9.2832   9.2852

          k =-0.0000-0.3204-0.3204 (  4560 PWs)   bands (ev):

   -14.2977 -14.2973 -14.0835 -14.0829 -14.0759 -14.0752 -13.9995 -13.9989
   -13.9976 -13.9969  -8.6960  -8.6944  -7.7035  -7.7032   3.3116   3.3126
     5.4668   5.4679   6.7154   6.7169   8.0353   8.0356   8.2367   8.2368
     8.9362   8.9370

          k = 0.1634 0.0000 0.0000 (  4555 PWs)   bands (ev):

   -14.3302 -14.1541 -14.1434 -14.1428 -14.0761 -14.0273 -14.0131 -14.0111
   -14.0104 -13.9862 -10.0123  -7.2755  -7.2751  -6.8189   0.2432   5.1314
     5.3870   5.3884   5.8957   6.3424   7.0245   7.2611   7.2611   9.4504
     9.4506  10.0667

          k = 0.1634-0.0000 0.1602 (  4553 PWs)   bands (ev):

   -14.3099 -14.1946 -14.1387 -14.1297 -14.0705 -14.0381 -14.0125 -14.0091
   -14.0072 -13.9894  -9.7537  -8.0254  -7.1131  -6.5906   0.8006   4.0790
     4.5647   5.3666   6.3462   6.7079   7.2237   7.6114   7.8515   8.9923
     9.3876   9.8860

          k = 0.1634 0.0000-0.3205 (  4540 PWs)   bands (ev):

   -14.2572 -14.2569 -14.1307 -14.1304 -14.0560 -14.0555 -14.0114 -14.0108
   -13.9981 -13.9975  -9.0305  -9.0276  -6.7637  -6.7620   2.2328   2.2369
     4.6740   4.6753   6.8918   6.8928   7.9231   7.9245   8.2099   8.2102
     9.4170   9.4191

          k = 0.1634 0.1602 0.1602 (  4557 PWs)   bands (ev):

   -14.2939 -14.2098 -14.1436 -14.1289 -14.0691 -14.0443 -14.0122 -14.0102
   -14.0044 -13.9915  -9.5016  -8.1058  -7.3701  -6.6592   1.3071   3.3470
     5.2460   5.4969   5.9033   6.5073   7.1755   7.7603   8.2557   8.7518
     9.2787   9.7891

          k = 0.1634 0.1602-0.3205 (  4554 PWs)   bands (ev):

   -14.2530 -14.2526 -14.1371 -14.1367 -14.0599 -14.0593 -14.0115 -14.0108
   -13.9978 -13.9972  -8.8269  -8.8243  -7.0682  -7.0665   2.4120   2.4149
     5.0759   5.0768   6.5752   6.5754   7.4674   7.4685   8.4731   8.4738
     9.3872   9.3890

          k = 0.1634-0.3204-0.3204 (  4568 PWs)   bands (ev):

   -14.2481 -14.2477 -14.1448 -14.1442 -14.0635 -14.0628 -14.0113 -14.0106
   -13.9976 -13.9969  -8.5273  -8.5258  -7.4631  -7.4626   2.5922   2.5934
     5.6726   5.6736   6.4982   6.4985   6.6318   6.6328   9.0077   9.0084
     9.0110   9.0115

          k = 0.3269 0.0000 0.0000 (  4520 PWs)   bands (ev):

   -14.2608 -14.2603 -14.2179 -14.0926 -14.0344 -14.0336 -14.0302 -14.0196
   -14.0032 -13.9877  -9.2243  -7.2093  -6.7917  -6.7911   0.3741   3.2909
     4.8218   5.5017   5.5019   6.2191   6.2205   6.2828   7.1135   8.9918
     8.9920   9.3021

          k = 0.3269-0.0000 0.1602 (  4543 PWs)   bands (ev):

   -14.2992 -14.2849 -14.1612 -14.0877 -14.0403 -14.0383 -14.0227 -14.0161
   -14.0000 -13.9892  -9.0125  -7.6868  -6.7276  -6.6384   0.8573   2.9580
     3.9747   4.5134   5.5153   5.5680   7.2661   7.5002   7.6966   8.8932
     9.0390   9.3848

          k = 0.3269 0.0000-0.3205 (  4554 PWs)   bands (ev):

   -14.3121 -14.3118 -14.1052 -14.1049 -14.0426 -14.0424 -14.0163 -14.0160
   -13.9940 -13.9934  -8.4348  -8.4324  -6.6222  -6.6204   2.0146   2.0166
     3.5677   3.5678   5.5262   5.5272   7.9706   7.9714   8.5841   8.5846
     9.1945   9.1959

          k = 0.3269 0.1602 0.1602 (  4548 PWs)   bands (ev):

   -14.3131 -14.2618 -14.1710 -14.0917 -14.0421 -14.0353 -14.0248 -14.0162
   -13.9979 -13.9902  -8.8112  -7.8065  -6.8707  -6.6121   1.0006   2.3203
     3.9051   5.0161   5.0955   6.2424   6.3954   8.0724   8.2828   8.8266
     9.0651   9.4447

          k = 0.3269 0.1602-0.3205 (  4558 PWs)   bands (ev):

   -14.2923 -14.2919 -14.1294 -14.1291 -14.0396 -14.0392 -14.0203 -14.0200
   -13.9939 -13.9932  -8.3001  -8.2981  -6.7687  -6.7671   1.4644   1.4658
     4.5426   4.5432   5.2613   5.2621   7.8961   7.8973   8.6478   8.6488
     9.2636   9.2651

          k = 0.3269-0.3204-0.3204 (  4544 PWs)   bands (ev):

   -14.2636 -14.2631 -14.1630 -14.1625 -14.0351 -14.0343 -14.0258 -14.0251
   -13.9937 -13.9930  -8.1320  -8.1308  -6.9491  -6.9484   1.1512   1.1524
     4.6396   4.6399   6.4361   6.4374   6.7330   6.7333   9.1612   9.1618
     9.1657   9.1662

          k =-0.4903-0.0000-0.0000 (  4544 PWs)   bands (ev):

   -14.3170 -14.3165 -14.1279 -14.1273 -14.0456 -14.0448 -13.9971 -13.9964
   -13.9937 -13.9930  -8.1340  -8.1274  -6.5317  -6.5309   1.3001   1.3102
     4.8250   4.8254   5.3618   5.3653   6.7239   6.7254   8.2012   8.2072
     8.5619   8.5622

          k =-0.4903-0.0000 0.1602 (  4558 PWs)   bands (ev):

   -14.3422 -14.3418 -14.1025 -14.1020 -14.0460 -14.0454 -13.9953 -13.9946
   -13.9928 -13.9921  -8.0830  -8.0781  -6.5865  -6.5857   1.4159   1.4230
     4.1702   4.1731   4.9931   4.9943   7.5792   7.5810   8.4174   8.4227
     8.7691   8.7711

          k =-0.4903 0.0000-0.3205 (  4556 PWs)   bands (ev):

   -14.3627 -14.3624 -14.0839 -14.0836 -14.0443 -14.0437 -13.9938 -13.9931
   -13.9917 -13.9911  -8.0262  -8.0255  -6.6463  -6.6456   1.5943   1.5952
     3.4881   3.4886   4.9840   4.9846   7.7009   7.7011   8.9774   8.9779
     9.0300   9.0301

          k =-0.4903 0.1602 0.1602 (  4538 PWs)   bands (ev):

   -14.3627 -14.3182 -14.1317 -14.0788 -14.0466 -14.0463 -13.9955 -13.9936
   -13.9927 -13.9914  -8.0321  -8.0149  -6.6365  -6.6006   0.7927   1.5947
     3.8617   4.3165   4.3890   6.3176   6.7649   8.4768   8.5433   8.5872
     8.7163   9.0173

          k =-0.4903 0.1602-0.3205 (  4564 PWs)   bands (ev):

   -14.3438 -14.3434 -14.1047 -14.1043 -14.0464 -14.0457 -13.9948 -13.9941
   -13.9918 -13.9912  -7.9625  -7.9617  -6.6566  -6.6558   0.8879   0.8888
     4.0622   4.0626   5.2029   5.2035   7.9747   7.9751   8.7908   8.7910
     9.1384   9.1385

          k =-0.4903-0.3204-0.3204 (  4552 PWs)   bands (ev):

   -14.3203 -14.3199 -14.1319 -14.1314 -14.0464 -14.0457 -13.9960 -13.9953
   -13.9917 -13.9910  -7.8952  -7.8944  -6.6696  -6.6688   0.4363   0.4373
     3.9210   3.9213   6.8262   6.8279   6.8529   6.8534   9.0659   9.0661
     9.2462   9.2463

          k = 0.0000 0.1602-0.1602 (  4571 PWs)   bands (ev):

   -14.3382 -14.2433 -14.0859 -14.0831 -14.0792 -14.0548 -14.0083 -14.0012
   -13.9971 -13.9927  -9.7583  -8.2745  -7.6050  -6.7230   1.3197   3.8424
     5.2083   6.0611   6.9429   7.1780   7.3489   8.1737   8.2839   8.5511
     9.3040   9.7026

          k = 0.1634 0.0000-0.1602 (  4553 PWs)   bands (ev):

   -14.3099 -14.1946 -14.1387 -14.1297 -14.0705 -14.0381 -14.0125 -14.0091
   -14.0072 -13.9894  -9.7537  -8.0254  -7.1131  -6.5906   0.8006   4.0790
     4.5647   5.3666   6.3462   6.7079   7.2237   7.6114   7.8515   8.9923
     9.3876   9.8860

          k =-0.1634 0.1602-0.1602 (  4557 PWs)   bands (ev):

   -14.2940 -14.2095 -14.1441 -14.1286 -14.0689 -14.0444 -14.0116 -14.0109
   -14.0042 -13.9915  -9.5017  -8.1053  -7.3705  -6.6592   1.3072   3.3475
     5.2463   5.4958   5.9032   6.5073   7.1751   7.7602   8.2564   8.7518
     9.2788   9.7891

          k = 0.1634-0.1602-0.1602 (  4557 PWs)   bands (ev):

   -14.2939 -14.2098 -14.1436 -14.1289 -14.0691 -14.0443 -14.0122 -14.0102
   -14.0044 -13.9915  -9.5016  -8.1058  -7.3701  -6.6592   1.3071   3.3470
     5.2460   5.4969   5.9033   6.5073   7.1755   7.7603   8.2557   8.7518
     9.2788   9.7891

          k =-0.1634 0.1602 0.3205 (  4554 PWs)   bands (ev):

   -14.2530 -14.2526 -14.1371 -14.1367 -14.0599 -14.0593 -14.0115 -14.0108
   -13.9978 -13.9972  -8.8269  -8.8243  -7.0682  -7.0665   2.4119   2.4150
     5.0759   5.0769   6.5752   6.5754   7.4674   7.4685   8.4731   8.4738
     9.3872   9.3890

          k = 0.3269 0.0000-0.1602 (  4543 PWs)   bands (ev):

   -14.2992 -14.2849 -14.1612 -14.0877 -14.0403 -14.0383 -14.0227 -14.0161
   -14.0000 -13.9892  -9.0125  -7.6868  -6.7276  -6.6384   0.8573   2.9580
     3.9747   4.5134   5.5153   5.5680   7.2661   7.5002   7.6965   8.8932
     9.0390   9.3848

          k =-0.3269 0.1602-0.1602 (  4548 PWs)   bands (ev):

   -14.3129 -14.2623 -14.1707 -14.0918 -14.0424 -14.0346 -14.0255 -14.0160
   -13.9978 -13.9903  -8.8113  -7.8061  -6.8713  -6.6117   1.0000   2.3214
     3.9052   5.0163   5.0952   6.2411   6.3954   8.0722   8.2833   8.8268
     9.0650   9.4448

          k = 0.3269-0.1602-0.1602 (  4548 PWs)   bands (ev):

   -14.3131 -14.2618 -14.1710 -14.0917 -14.0421 -14.0353 -14.0248 -14.0162
   -13.9979 -13.9902  -8.8112  -7.8065  -6.8707  -6.6121   1.0006   2.3203
     3.9051   5.0161   5.0955   6.2424   6.3954   8.0724   8.2828   8.8266
     9.0651   9.4447

          k =-0.3269 0.1602 0.3205 (  4558 PWs)   bands (ev):

   -14.2923 -14.2919 -14.1294 -14.1291 -14.0396 -14.0392 -14.0203 -14.0200
   -13.9939 -13.9932  -8.3002  -8.2980  -6.7687  -6.7671   1.4644   1.4659
     4.5426   4.5432   5.2613   5.2621   7.8961   7.8973   8.6478   8.6488
     9.2636   9.2651

          k = 0.4903 0.1602-0.1602 (  4538 PWs)   bands (ev):

   -14.3623 -14.3187 -14.1313 -14.0792 -14.0469 -14.0459 -13.9962 -13.9930
   -13.9921 -13.9920  -8.0328  -8.0143  -6.6357  -6.6014   0.7918   1.5957
     3.8621   4.3169   4.3885   6.3177   6.7635   8.4773   8.5436   8.5875
     8.7160   9.0172

     highest occupied level (ev):    10.3285

!    total energy              =    -489.99065561 Ry
     estimated scf accuracy    <       0.00000044 Ry

     The total energy is the sum of the following terms:
     one-electron contribution =    -164.12533196 Ry
     hartree contribution      =     123.17674709 Ry
     xc contribution           =    -121.46312320 Ry
     ewald contribution        =    -327.57894754 Ry

     convergence has been achieved in  10 iterations

     Forces acting on atoms (cartesian axes, Ry/au):

     atom    1 type  1   force =    -0.00049872   -0.00005338   -0.00005338
     atom    2 type  1   force =     0.00050063    0.00033079    0.00033079
     atom    3 type  2   force =     0.00052125   -0.00614855   -0.00614855
     atom    4 type  2   force =    -0.00052193    0.00577254   -0.00584075
     atom    5 type  2   force =     0.00052069    0.00593936    0.00593936
     atom    6 type  2   force =    -0.00052193   -0.00584075    0.00577254

     Total force =     0.016818     Total SCF correction =     0.000183


     Computing stress (Cartesian axis) and pressure

          total   stress  (Ry/bohr**3)                   (kbar)     P=      -30.12
  -0.00029357  -0.00000000  -0.00000000          -43.19       -0.00       -0.00
  -0.00000000  -0.00016031  -0.00000014           -0.00      -23.58       -0.02
  -0.00000000  -0.00000014  -0.00016031           -0.00       -0.02      -23.58

     Energy error            =      4.2E-03 Ry
     Gradient error          =      6.1E-03 Ry/Bohr
     Cell gradient error     =      4.3E+01 kbar

     number of scf cycles    =   2
     number of bfgs steps    =   1

     enthalpy           old  =    -489.9864066153 Ry
     enthalpy           new  =    -489.9906556066 Ry

     CASE: enthalpy          _new < enthalpy          _old

     new trust radius        =       0.0212811608 bohr
     new conv_thr            =       0.0000000615 Ry

     new unit-cell volume =    391.64479 a.u.^3 (    58.03577 Ang^3 )
     density =      5.98730 g/cm^3

CELL_PARAMETERS (angstrom)
   2.910865568  -0.000000578  -0.000000578
  -0.000000891   4.465157697   0.000010054
  -0.000000891   0.000010054   4.465157697

ATOMIC_POSITIONS (angstrom)
Ge            1.4572077105        2.2334808719        2.2334808719
Ge            0.0015458391        0.0006501067        0.0006501067
O             0.0013155990        3.0989854348        3.0989854348
O             1.4574082038        3.6011145730        0.8664342832
O             0.0013189854        1.3683899337        1.3683899337
O             1.4574082038        0.8664342832        3.6011145730



     Writing output data file ./out/ge.save/
     NEW-OLD atomic charge density approx. for the potential

     Check: negative core charge=   -0.000002
     extrapolated charge   51.41784, renormalised to   52.00000

     total cpu time spent up to now is       14.4 secs

     Self-consistent Calculation

     iteration #  1     ecut=    80.00 Ry     beta= 0.40
     Davidson diagonalization with overlap
     ethr =  1.00E-06,  avg # of iterations =  6.4

     total cpu time spent up to now is       15.5 secs

     total energy              =    -489.97849062 Ry
     estimated scf accuracy    <       0.00754961 Ry

     iteration #  2     ecut=    80.00 Ry     beta= 0.40
     Davidson diagonalization with overlap
     ethr =  1.45E-05,  avg # of iterations =  3.0

     total cpu time spent up to now is       16.3 secs

     total energy              =    -489.99168154 Ry
     estimated scf accuracy    <       0.00313509 Ry

     iteration #  3     ecut=    80.00 Ry     beta= 0.40
     Davidson diagonalization with overlap
     ethr =  6.03E-06,  avg # of iterations =  1.1

     total cpu time spent up to now is       16.7 secs

     total energy              =    -489.99111378 Ry
     estimated scf accuracy    <       0.00121989 Ry

     iteration #  4     ecut=    80.00 Ry     beta= 0.40
     Davidson diagonalization with overlap
     ethr =  2.35E-06,  avg # of iterations =  2.7

     total cpu time spent up to now is       17.4 secs

     total energy              =    -489.99141247 Ry
     estimated scf accuracy    <       0.00008622 Ry

     iteration #  5     ecut=    80.00 Ry     beta= 0.40
     Davidson diagonalization with overlap
     ethr =  1.66E-07,  avg # of iterations =  2.3

     total cpu time spent up to now is       18.0 secs

     total energy              =    -489.99131558 Ry
     estimated scf accuracy    <       0.00019667 Ry

     iteration #  6     ecut=    80.00 Ry     beta= 0.40
     Davidson diagonalization with overlap
     ethr =  1.66E-07,  avg # of iterations =  2.0

     total cpu time spent up to now is       18.6 secs

     total energy              =    -489.99134404 Ry
     estimated scf accuracy    <       0.00000289 Ry

     iteration #  7     ecut=    80.00 Ry     beta= 0.40
     Davidson diagonalization with overlap
     ethr =  5.56E-09,  avg # of iterations =  4.5

     total cpu time spent up to now is       19.5 secs

     total energy              =    -489.99134390 Ry
     estimated scf accuracy    <       0.00001279 Ry

     iteration #  8     ecut=    80.00 Ry     beta= 0.40
     Davidson diagonalization with overlap
     ethr =  5.56E-09,  avg # of iterations =  2.0

     total cpu time spent up to now is       20.2 secs

     total energy              =    -489.99134405 Ry
     estimated scf accuracy    <       0.00000166 Ry

     iteration #  9     ecut=    80.00 Ry     beta= 0.40
     Davidson diagonalization with overlap
     ethr =  3.19E-09,  avg # of iterations =  2.0

     total cpu time spent up to now is       20.8 secs

     End of self-consistent calculation

          k = 0.0000 0.0000 0.0000 (  4571 PWs)   bands (ev):

   -14.2031 -14.0143 -13.8977 -13.8880 -13.8878 -13.8226 -13.8177 -13.7972
   -13.7970 -13.7850 -10.2076  -7.3698  -7.3696  -6.6281   0.4248   5.2375
     5.2380   5.7503   6.1895   7.2143   8.1129   8.5084   8.5085   9.7212
     9.7213  10.5086

          k = 0.0000-0.0000 0.1607 (  4528 PWs)   bands (ev):

   -14.1740 -14.0374 -13.8923 -13.8866 -13.8864 -13.8427 -13.8123 -13.7988
   -13.7985 -13.7892  -9.9378  -8.1190  -7.1712  -6.4620   0.9235   4.0270
     5.6061   5.9957   6.7197   7.5244   7.7543   8.5473   8.5737   8.7089
     9.7064  10.1409

          k =-0.0000 0.0000-0.3214 (  4548 PWs)   bands (ev):

   -14.1033 -14.1031 -13.8852 -13.8850 -13.8745 -13.8743 -13.8004 -13.8002
   -13.8001 -13.8000  -9.1786  -9.1771  -6.7275  -6.7267   2.2642   2.2669
     6.6610   6.6617   6.7166   6.7182   7.7602   7.7606   8.7017   8.7017
     9.7148   9.7161

          k = 0.0000 0.1607 0.1607 (  4571 PWs)   bands (ev):

   -14.1562 -14.0581 -13.8884 -13.8883 -13.8852 -13.8554 -13.8083 -13.8001
   -13.7970 -13.7919  -9.6711  -8.1655  -7.4734  -6.5783   1.4743   3.9978
     5.3341   6.2077   7.0893   7.3274   7.5281   8.3383   8.4601   8.7241
     9.4718   9.8757

          k =-0.0000 0.1607-0.3214 (  4566 PWs)   bands (ev):

   -14.1089 -14.1087 -13.8871 -13.8869 -13.8761 -13.8759 -13.7995 -13.7993
   -13.7986 -13.7983  -8.9495  -8.9481  -7.0923  -7.0915   2.7919   2.7943
     6.2453   6.2469   6.7542   6.7549   7.9402   7.9407   8.5644   8.5645
     9.4490   9.4502

          k =-0.0000-0.3214-0.3214 (  4560 PWs)   bands (ev):

   -14.1145 -14.1144 -13.8889 -13.8887 -13.8776 -13.8774 -13.7988 -13.7986
   -13.7968 -13.7966  -8.5935  -8.5929  -7.5744  -7.5743   3.4943   3.4946
     5.5942   5.5946   6.8627   6.8632   8.2160   8.2161   8.4128   8.4128
     9.0923   9.0926

          k = 0.1643 0.0000 0.0000 (  4555 PWs)   bands (ev):

   -14.1460 -13.9631 -13.9531 -13.9529 -13.8784 -13.8263 -13.8132 -13.8110
   -13.8108 -13.7850  -9.9296  -7.1311  -7.1309  -6.6904   0.3981   5.2648
     5.5256   5.5261   6.0394   6.4680   7.1845   7.4164   7.4164   9.6250
     9.6251  10.2442

          k = 0.1643-0.0000 0.1607 (  4553 PWs)   bands (ev):

   -14.1249 -14.0054 -13.9484 -13.9388 -13.8726 -13.8381 -13.8127 -13.8090
   -13.8071 -13.7883  -9.6671  -7.9076  -6.9658  -6.4412   0.9531   4.2217
     4.6907   5.5072   6.4831   6.8630   7.3858   7.7645   8.0086   9.1592
     9.5582  10.0601

          k = 0.1643 0.0000-0.3214 (  4540 PWs)   bands (ev):

   -14.0701 -14.0700 -13.9400 -13.9399 -13.8571 -13.8570 -13.8113 -13.8111
   -13.7973 -13.7971  -8.9313  -8.9298  -6.6107  -6.6099   2.3818   2.3844
     4.8037   4.8045   7.0447   7.0453   8.0938   8.0944   8.3686   8.3688
     9.5811   9.5823

          k = 0.1643 0.1607 0.1607 (  4557 PWs)   bands (ev):

   -14.1084 -14.0211 -13.9537 -13.9380 -13.8710 -13.8448 -13.8122 -13.8104
   -13.8040 -13.7906  -9.4109  -7.9925  -7.2283  -6.5070   1.4625   3.4909
     5.3831   5.6282   6.0510   6.6597   7.3319   7.9106   8.4307   8.9064
     9.4472   9.9632

          k = 0.1643 0.1607-0.3214 (  4554 PWs)   bands (ev):

   -14.0659 -14.0658 -13.9467 -13.9465 -13.8611 -13.8609 -13.8114 -13.8112
   -13.7970 -13.7968  -8.7248  -8.7235  -6.9218  -6.9210   2.5697   2.5715
     5.2065   5.2069   6.7270   6.7271   7.6275   7.6279   8.6347   8.6350
     9.5554   9.5563

          k = 0.1643-0.3214-0.3214 (  4568 PWs)   bands (ev):

   -14.0610 -14.0609 -13.9546 -13.9544 -13.8647 -13.8645 -13.8112 -13.8110
   -13.7967 -13.7965  -8.4223  -8.4217  -7.3232  -7.3230   2.7583   2.7587
     5.8046   5.8049   6.6597   6.6598   6.7731   6.7735   9.1684   9.1687
     9.1842   9.1842

          k = 0.3287 0.0000 0.0000 (  4520 PWs)   bands (ev):

   -14.0783 -14.0782 -14.0263 -13.8950 -13.8357 -13.8354 -13.8304 -13.8192
   -13.8027 -13.7865  -9.1301  -7.0804  -6.6247  -6.6244   0.5010   3.4195
     4.9541   5.6280   5.6281   6.3734   6.3739   6.4376   7.2501   9.1577
     9.1578   9.4700

          k = 0.3287-0.0000 0.1607 (  4543 PWs)   bands (ev):

   -14.1163 -14.1026 -13.9693 -13.8909 -13.8418 -13.8398 -13.8229 -13.8157
   -13.7993 -13.7880  -8.9145  -7.5635  -6.5597  -6.4718   0.9899   3.0892
     4.0981   4.6538   5.6384   5.6943   7.4271   7.6576   7.8485   9.0535
     9.2071   9.5518

          k = 0.3287 0.0000-0.3214 (  4554 PWs)   bands (ev):

   -14.1298 -14.1297 -13.9104 -13.9103 -13.8441 -13.8440 -13.8160 -13.8159
   -13.7929 -13.7927  -8.3255  -8.3242  -6.4529  -6.4519   2.1567   2.1578
     3.6856   3.6856   5.6510   5.6518   8.1327   8.1333   8.7507   8.7510
     9.3565   9.3573

          k = 0.3287 0.1607 0.1607 (  4548 PWs)   bands (ev):

   -14.1308 -14.0797 -13.9778 -13.8959 -13.8438 -13.8367 -13.8250 -13.8159
   -13.7971 -13.7891  -8.7096  -7.6870  -6.7059  -6.4434   1.1330   2.4549
     4.0238   5.1375   5.2316   6.3981   6.5292   8.2232   8.4534   8.9871
     9.2292   9.6111

          k = 0.3287 0.1607-0.3214 (  4558 PWs)   bands (ev):

   -14.1097 -14.1096 -13.9353 -13.9351 -13.8410 -13.8409 -13.8202 -13.8201
   -13.7927 -13.7925  -8.1889  -8.1878  -6.6023  -6.6015   1.5967   1.5973
     4.6724   4.6726   5.3885   5.3891   8.0595   8.0601   8.8075   8.8078
     9.4266   9.4273

          k = 0.3287-0.3214-0.3214 (  4544 PWs)   bands (ev):

   -14.0813 -14.0812 -13.9688 -13.9686 -13.8364 -13.8362 -13.8255 -13.8253
   -13.7925 -13.7923  -8.0192  -8.0187  -6.7856  -6.7853   1.2815   1.2819
     4.7592   4.7592   6.5980   6.5985   6.8708   6.8709   9.3249   9.3251
     9.3272   9.3274

          k =-0.4930-0.0000-0.0000 (  4544 PWs)   bands (ev):

   -14.1380 -14.1378 -13.9308 -13.9305 -13.8476 -13.8473 -13.7953 -13.7950
   -13.7925 -13.7922  -8.0182  -8.0147  -6.3519  -6.3516   1.4172   1.4226
     4.9319   4.9321   5.5078   5.5100   6.9023   6.9029   8.3549   8.3583
     8.7117   8.7118

          k =-0.4930-0.0000 0.1607 (  4558 PWs)   bands (ev):

   -14.1633 -14.1631 -13.9054 -13.9052 -13.8480 -13.8478 -13.7934 -13.7932
   -13.7915 -13.7913  -7.9673  -7.9647  -6.4081  -6.4078   1.5360   1.5397
     4.3028   4.3045   5.1086   5.1093   7.7535   7.7544   8.5723   8.5753
     8.9263   8.9274

          k =-0.4930 0.0000-0.3214 (  4556 PWs)   bands (ev):

   -14.1841 -14.1840 -13.8867 -13.8866 -13.8461 -13.8459 -13.7920 -13.7918
   -13.7903 -13.7901  -7.9112  -7.9109  -6.4693  -6.4690   1.7189   1.7192
     3.6155   3.6156   5.0959   5.0961   7.8615   7.8616   9.1484   9.1486
     9.1886   9.1886

          k =-0.4930 0.1607 0.1607 (  4538 PWs)   bands (ev):

   -14.1840 -14.1397 -13.9349 -13.8815 -13.8487 -13.8486 -13.7941 -13.7917
   -13.7914 -13.7906  -7.9173  -7.8985  -6.4593  -6.4227   0.9036   1.7217
     3.9925   4.4217   4.5047   6.4499   6.9417   8.6606   8.6932   8.7369
     8.8747   9.1762

          k =-0.4930 0.1607-0.3214 (  4564 PWs)   bands (ev):

   -14.1650 -14.1649 -13.9077 -13.9076 -13.8483 -13.8481 -13.7929 -13.7926
   -13.7905 -13.7903  -7.8455  -7.8453  -6.4795  -6.4792   1.0043   1.0047
     4.1740   4.1742   5.3394   5.3397   8.1436   8.1437   8.9460   8.9461
     9.2990   9.2991

          k =-0.4930-0.3214-0.3214 (  4552 PWs)   bands (ev):

   -14.1416 -14.1415 -13.9351 -13.9350 -13.8484 -13.8482 -13.7941 -13.7939
   -13.7904 -13.7902  -7.7763  -7.7760  -6.4925  -6.4923   0.5480   0.5483
     4.0243   4.0244   6.9896   6.9898   7.0053   7.0055   9.2168   9.2168
     9.4097   9.4098

          k = 0.0000 0.1607-0.1607 (  4571 PWs)   bands (ev):

   -14.1562 -14.0581 -13.8885 -13.8884 -13.8850 -13.8554 -13.8083 -13.8004
   -13.7968 -13.7919  -9.6711  -8.1653  -7.4735  -6.5783   1.4745   3.9978
     5.3337   6.2077   7.0892   7.3275   7.5284   8.3383   8.4602   8.7240
     9.4718   9.8757

          k = 0.1643 0.0000-0.1607 (  4553 PWs)   bands (ev):

   -14.1249 -14.0054 -13.9484 -13.9388 -13.8726 -13.8381 -13.8127 -13.8090
   -13.8071 -13.7883  -9.6671  -7.9076  -6.9658  -6.4412   0.9531   4.2217
     4.6906   5.5072   6.4831   6.8630   7.3858   7.7645   8.0086   9.1592
     9.5582  10.0601

          k =-0.1643 0.1607-0.1607 (  4557 PWs)   bands (ev):

   -14.1085 -14.0210 -13.9539 -13.9379 -13.8709 -13.8449 -13.8120 -13.8107
   -13.8040 -13.7906  -9.4109  -7.9923  -7.2284  -6.5070   1.4626   3.4911
     5.3832   5.6279   6.0510   6.6597   7.3318   7.9106   8.4310   8.9064
     9.4472   9.9632

          k = 0.1643-0.1607-0.1607 (  4557 PWs)   bands (ev):

   -14.1084 -14.0211 -13.9537 -13.9380 -13.8710 -13.8448 -13.8122 -13.8104
   -13.8040 -13.7906  -9.4109  -7.9925  -7.2283  -6.5070   1.4625   3.4909
     5.3831   5.6282   6.0510   6.6597   7.3319   7.9106   8.4307   8.9064
     9.4472   9.9632

          k =-0.1643 0.1607 0.3214 (  4554 PWs)   bands (ev):

   -14.0659 -14.0658 -13.9467 -13.9465 -13.8611 -13.8609 -13.8114 -13.8112
   -13.7970 -13.7968  -8.7248  -8.7234  -6.9218  -6.9210   2.5697   2.5716
     5.2065   5.2069   6.7270   6.7271   7.6275   7.6279   8.6347   8.6350
     9.5554   9.5564

          k = 0.3287 0.0000-0.1607 (  4543 PWs)   bands (ev):

   -14.1163 -14.1026 -13.9693 -13.8909 -13.8418 -13.8398 -13.8229 -13.8157
   -13.7993 -13.7880  -8.9145  -7.5635  -6.5597  -6.4718   0.9899   3.0892
     4.0981   4.6538   5.6384   5.6943   7.4271   7.6576   7.8485   9.0535
     9.2071   9.5518

          k =-0.3287 0.1607-0.1607 (  4548 PWs)   bands (ev):

   -14.1307 -14.0799 -13.9777 -13.8960 -13.8439 -13.8365 -13.8253 -13.8158
   -13.7971 -13.7892  -8.7097  -7.6869  -6.7061  -6.4433   1.1328   2.4553
     4.0239   5.1376   5.2315   6.3976   6.5292   8.2231   8.4536   8.9872
     9.2292   9.6111

          k = 0.3287-0.1607-0.1607 (  4548 PWs)   bands (ev):

   -14.1308 -14.0797 -13.9778 -13.8959 -13.8438 -13.8367 -13.8250 -13.8159
   -13.7971 -13.7891  -8.7096  -7.6870  -6.7059  -6.4434   1.1330   2.4549
     4.0238   5.1375   5.2316   6.3981   6.5292   8.2232   8.4534   8.9871
     9.2292   9.6111

          k =-0.3287 0.1607 0.3214 (  4558 PWs)   bands (ev):

   -14.1097 -14.1096 -13.9353 -13.9351 -13.8410 -13.8409 -13.8202 -13.8201
   -13.7927 -13.7925  -8.1889  -8.1878  -6.6023  -6.6015   1.5966   1.5974
     4.6724   4.6726   5.3885   5.3891   8.0594   8.0602   8.8075   8.8079
     9.4266   9.4273

          k = 0.4930 0.1607-0.1607 (  4538 PWs)   bands (ev):

   -14.1839 -14.1399 -13.9348 -13.8816 -13.8489 -13.8484 -13.7943 -13.7915
   -13.7911 -13.7908  -7.9176  -7.8983  -6.4590  -6.4230   0.9032   1.7221
     3.9926   4.4219   4.5045   6.4500   6.9412   8.6608   8.6933   8.7370
     8.8746   9.1762

     highest occupied level (ev):    10.5086

!    total energy              =    -489.99134434 Ry
     estimated scf accuracy    <       0.00000004 Ry

     The total energy is the sum of the following terms:
     one-electron contribution =    -162.62639906 Ry
     hartree contribution      =     122.78284642 Ry
     xc contribution           =    -121.52025324 Ry
     ewald contribution        =    -328.62753845 Ry

     convergence has been achieved in   9 iterations

     Forces acting on atoms (cartesian axes, Ry/au):

     atom    1 type  1   force =    -0.00026392    0.00001619    0.00001619
     atom    2 type  1   force =     0.00026257    0.00021898    0.00021898
     atom    3 type  2   force =     0.00029685   -0.00255869   -0.00255869
     atom    4 type  2   force =    -0.00029555    0.00235386   -0.00241902
     atom    5 type  2   force =     0.00029561    0.00238868    0.00238868
     atom    6 type  2   force =    -0.00029555   -0.00241902    0.00235386

     Total force =     0.006919     Total SCF correction =     0.000142


     Computing stress (Cartesian axis) and pressure

          total   stress  (Ry/bohr**3)                   (kbar)     P=       -0.25
  -0.00003774   0.00000000   0.00000000           -5.55        0.00        0.00
   0.00000000   0.00001635  -0.00000009            0.00        2.41       -0.01
   0.00000000  -0.00000009   0.00001635            0.00       -0.01        2.41

     Energy error            =      6.9E-04 Ry
     Gradient error          =      2.6E-03 Ry/Bohr
     Cell gradient error     =      5.6E+00 kbar

     number of scf cycles    =   3
     number of bfgs steps    =   2

     enthalpy           old  =    -489.9906556066 Ry
     enthalpy           new  =    -489.9913443388 Ry

     CASE: enthalpy          _new < enthalpy          _old

     new trust radius        =       0.0044886505 bohr
     new conv_thr            =       0.0000000256 Ry

     new unit-cell volume =    391.57411 a.u.^3 (    58.02530 Ang^3 )
     density =      5.98838 g/cm^3

CELL_PARAMETERS (angstrom)
   2.907566768  -0.000000404  -0.000000404
  -0.000000624   4.467286806  -0.000001404
  -0.000000624  -0.000001404   4.467286806

ATOMIC_POSITIONS (angstrom)
Ge            1.4553732244        2.2345460916        2.2345460916
Ge            0.0017268029        0.0007950627        0.0007950627
O             0.0015162073        3.0987808634        3.0987808634
O             1.4555557827        3.6043605576        0.8652658213
O             0.0015186440        1.3706041051        1.3706041051
O             1.4555557827        0.8652658213        3.6043605576



     Writing output data file ./out/ge.save/
     NEW-OLD atomic charge density approx. for the potential

     Check: negative core charge=   -0.000002
     extrapolated charge   51.99061, renormalised to   52.00000

     total cpu time spent up to now is       21.6 secs

     Self-consistent Calculation

     iteration #  1     ecut=    80.00 Ry     beta= 0.40
     Davidson diagonalization with overlap
     ethr =  1.00E-06,  avg # of iterations =  4.4

     Threshold (ethr) on eigenvalues was too large:
     Diagonalizing with lowered threshold

     Davidson diagonalization with overlap
     ethr =  2.97E-08,  avg # of iterations =  3.1

     total cpu time spent up to now is       23.1 secs

     total energy              =    -489.99139890 Ry
     estimated scf accuracy    <       0.00001603 Ry

     iteration #  2     ecut=    80.00 Ry     beta= 0.40
     Davidson diagonalization with overlap
     ethr =  3.08E-08,  avg # of iterations =  2.0

     total cpu time spent up to now is       23.7 secs

     total energy              =    -489.99140364 Ry
     estimated scf accuracy    <       0.00000262 Ry

     iteration #  3     ecut=    80.00 Ry     beta= 0.40
     Davidson diagonalization with overlap
     ethr =  5.03E-09,  avg # of iterations =  2.2

     total cpu time spent up to now is       24.3 secs

     total energy              =    -489.99140380 Ry
     estimated scf accuracy    <       0.00000050 Ry

     iteration #  4     ecut=    80.00 Ry     beta= 0.40
     Davidson diagonalization with overlap
     ethr =  9.53E-10,  avg # of iterations =  2.7

     total cpu time spent up to now is       24.9 secs

     total energy              =    -489.99140387 Ry
     estimated scf accuracy    <       0.00000005 Ry

     iteration #  5     ecut=    80.00 Ry     beta= 0.40
     Davidson diagonalization with overlap
     ethr =  1.01E-10,  avg # of iterations =  2.9

     total cpu time spent up to now is       25.5 secs

     End of self-consistent calculation

          k = 0.0000 0.0000 0.0000 (  4571 PWs)   bands (ev):

   -14.1988 -14.0110 -13.8916 -13.8829 -13.8828 -13.8158 -13.8119 -13.7910
   -13.7910 -13.7793 -10.2113  -7.3703  -7.3702  -6.6492   0.4471   5.2396
     5.2397   5.7558   6.1932   7.2003   8.1000   8.5129   8.5129   9.7213
     9.7213  10.5079

          k = 0.0000 0.0000 0.1606 (  4528 PWs)   bands (ev):

   -14.1697 -14.0341 -13.8862 -13.8815 -13.8815 -13.8360 -13.8065 -13.7926
   -13.7925 -13.7834  -9.9417  -8.1242  -7.1731  -6.4745   0.9408   4.0278
     5.6075   6.0001   6.7263   7.5199   7.7556   8.5460   8.5772   8.7085
     9.7049  10.1396

          k =-0.0000-0.0000-0.3212 (  4548 PWs)   bands (ev):

   -14.0994 -14.0993 -13.8801 -13.8800 -13.8680 -13.8680 -13.7943 -13.7943
   -13.7942 -13.7941  -9.1828  -9.1824  -6.7330  -6.7329   2.2725   2.2739
     6.6622   6.6622   6.7205   6.7215   7.7677   7.7677   8.7028   8.7031
     9.7103   9.7110

          k = 0.0000 0.1606 0.1606 (  4571 PWs)   bands (ev):

   -14.1520 -14.0545 -13.8833 -13.8822 -13.8800 -13.8488 -13.8024 -13.7942
   -13.7908 -13.7861  -9.6756  -8.1738  -7.4734  -6.5870   1.4881   4.0016
     5.3316   6.2108   7.0972   7.3231   7.5342   8.3375   8.4652   8.7246
     9.4714   9.8759

          k =-0.0000 0.1606-0.3212 (  4566 PWs)   bands (ev):

   -14.1050 -14.1049 -13.8819 -13.8819 -13.8696 -13.8696 -13.7936 -13.7936
   -13.7924 -13.7923  -8.9551  -8.9547  -7.0957  -7.0955   2.7999   2.8011
     6.2454   6.2464   6.7541   6.7542   7.9502   7.9503   8.5675   8.5678
     9.4479   9.4484

          k =-0.0000-0.3212-0.3212 (  4560 PWs)   bands (ev):

   -14.1106 -14.1106 -13.8837 -13.8837 -13.8711 -13.8711 -13.7929 -13.7929
   -13.7907 -13.7906  -8.6030  -8.6030  -7.5738  -7.5737   3.5033   3.5033
     5.5896   5.5896   6.8607   6.8608   8.2313   8.2313   8.4183   8.4183
     9.0898   9.0899

          k = 0.1645 0.0000 0.0000 (  4555 PWs)   bands (ev):

   -14.1407 -13.9586 -13.9489 -13.9489 -13.8723 -13.8195 -13.8074 -13.8050
   -13.8049 -13.7792  -9.9335  -7.1291  -7.1291  -6.7086   0.4164   5.2653
     5.5297   5.5298   6.0300   6.4721   7.1711   7.4158   7.4159   9.6264
     9.6265  10.2451

          k = 0.1645 0.0000 0.1606 (  4553 PWs)   bands (ev):

   -14.1197 -14.0007 -13.9444 -13.9348 -13.8664 -13.8316 -13.8067 -13.8030
   -13.8012 -13.7825  -9.6711  -7.9125  -6.9651  -6.4496   0.9679   4.2240
     4.6916   5.5023   6.4842   6.8691   7.3848   7.7635   8.0050   9.1574
     9.5581  10.0599

          k = 0.1645-0.0000-0.3212 (  4540 PWs)   bands (ev):

   -14.0651 -14.0650 -13.9359 -13.9359 -13.8508 -13.8508 -13.8052 -13.8052
   -13.7914 -13.7913  -8.9354  -8.9349  -6.6132  -6.6130   2.3904   2.3917
     4.8026   4.8032   7.0478   7.0482   8.0952   8.0955   8.3686   8.3688
     9.5781   9.5787

          k = 0.1645 0.1606 0.1606 (  4557 PWs)   bands (ev):

   -14.1033 -14.0163 -13.9497 -13.9339 -13.8647 -13.8384 -13.8061 -13.8046
   -13.7982 -13.7848  -9.4154  -8.0005  -7.2259  -6.5120   1.4751   3.4955
     5.3784   5.6275   6.0485   6.6677   7.3321   7.9114   8.4341   8.8984
     9.4475   9.9630

          k = 0.1645 0.1606-0.3212 (  4554 PWs)   bands (ev):

   -14.0609 -14.0609 -13.9426 -13.9426 -13.8547 -13.8547 -13.8053 -13.8053
   -13.7911 -13.7910  -8.7304  -8.7299  -6.9224  -6.9222   2.5786   2.5794
     5.2038   5.2040   6.7312   6.7313   7.6254   7.6255   8.6362   8.6363
     9.5543   9.5547

          k = 0.1645-0.3212-0.3212 (  4568 PWs)   bands (ev):

   -14.0560 -14.0560 -13.9504 -13.9504 -13.8583 -13.8583 -13.8052 -13.8052
   -13.7908 -13.7907  -8.4316  -8.4315  -7.3202  -7.3201   2.7671   2.7672
     5.8016   5.8016   6.6698   6.6698   6.7632   6.7633   9.1665   9.1665
     9.1884   9.1884

          k = 0.3290 0.0000 0.0000 (  4520 PWs)   bands (ev):

   -14.0759 -14.0759 -14.0193 -13.8879 -13.8299 -13.8299 -13.8240 -13.8128
   -13.7968 -13.7806  -9.1343  -7.0914  -6.6174  -6.6173   0.5052   3.4076
     4.9515   5.6227   5.6227   6.3801   6.3801   6.4315   7.2551   9.1586
     9.1586   9.4740

          k = 0.3290 0.0000 0.1606 (  4543 PWs)   bands (ev):

   -14.1126 -14.0996 -13.9637 -13.8846 -13.8359 -13.8340 -13.8167 -13.8094
   -13.7934 -13.7822  -8.9188  -7.5699  -6.5532  -6.4678   0.9928   3.0805
     4.0996   4.6570   5.6323   5.6875   7.4296   7.6591   7.8534   9.0528
     9.2062   9.5533

          k = 0.3290-0.0000-0.3212 (  4554 PWs)   bands (ev):

   -14.1261 -14.1261 -13.9048 -13.9047 -13.8382 -13.8382 -13.8098 -13.8098
   -13.7869 -13.7869  -8.3300  -8.3295  -6.4477  -6.4474   2.1555   2.1560
     3.6882   3.6883   5.6449   5.6456   8.1370   8.1375   8.7499   8.7501
     9.3549   9.3552

          k = 0.3290 0.1606 0.1606 (  4548 PWs)   bands (ev):

   -14.1270 -14.0775 -13.9711 -13.8900 -13.8379 -13.8309 -13.8188 -13.8096
   -13.7912 -13.7833  -8.7144  -7.6948  -6.6983  -6.4389   1.1356   2.4542
     4.0209   5.1355   5.2301   6.4046   6.5171   8.2255   8.4573   8.9820
     9.2292   9.6107

          k = 0.3290 0.1606-0.3212 (  4558 PWs)   bands (ev):

   -14.1064 -14.1064 -13.9292 -13.9291 -13.8351 -13.8351 -13.8139 -13.8139
   -13.7867 -13.7867  -8.1948  -8.1944  -6.5961  -6.5958   1.5990   1.5991
     4.6722   4.6722   5.3850   5.3854   8.0571   8.0574   8.8072   8.8073
     9.4247   9.4249

          k = 0.3290-0.3212-0.3212 (  4544 PWs)   bands (ev):

   -14.0789 -14.0789 -13.9617 -13.9617 -13.8306 -13.8306 -13.8191 -13.8190
   -13.7865 -13.7865  -8.0275  -8.0275  -6.7773  -6.7773   1.2851   1.2852
     4.7593   4.7593   6.6053   6.6053   6.8542   6.8543   9.3217   9.3217
     9.3263   9.3263

          k =-0.4935-0.0000-0.0000 (  4544 PWs)   bands (ev):

   -14.1364 -14.1363 -13.9231 -13.9230 -13.8419 -13.8419 -13.7884 -13.7884
   -13.7864 -13.7864  -8.0224  -8.0215  -6.3416  -6.3415   1.4103   1.4117
     4.9211   4.9211   5.5061   5.5071   6.9174   6.9175   8.3615   8.3627
     8.7085   8.7085

          k =-0.4935-0.0000 0.1606 (  4558 PWs)   bands (ev):

   -14.1609 -14.1609 -13.8985 -13.8985 -13.8423 -13.8422 -13.7867 -13.7867
   -13.7855 -13.7854  -7.9721  -7.9715  -6.3977  -6.3976   1.5287   1.5297
     4.3054   4.3060   5.1009   5.1011   7.7631   7.7633   8.5729   8.5739
     8.9258   8.9262

          k =-0.4935-0.0000-0.3212 (  4556 PWs)   bands (ev):

   -14.1813 -14.1813 -13.8803 -13.8803 -13.8402 -13.8402 -13.7855 -13.7854
   -13.7841 -13.7840  -7.9173  -7.9172  -6.4587  -6.4587   1.7097   1.7097
     3.6224   3.6224   5.0865   5.0865   7.8679   7.8679   9.1468   9.1469
     9.1878   9.1878

          k =-0.4935 0.1606 0.1606 (  4538 PWs)   bands (ev):

   -14.1812 -14.1382 -13.9273 -13.8751 -13.8431 -13.8429 -13.7875 -13.7853
   -13.7849 -13.7848  -7.9235  -7.9050  -6.4489  -6.4122   0.8995   1.7142
     3.9968   4.4158   4.4997   6.4370   6.9553   8.6674   8.6871   8.7324
     8.8777   9.1760

          k =-0.4935 0.1606-0.3212 (  4564 PWs)   bands (ev):

   -14.1627 -14.1626 -13.9008 -13.9008 -13.8426 -13.8426 -13.7861 -13.7861
   -13.7845 -13.7845  -7.8523  -7.8523  -6.4686  -6.4685   1.0019   1.0020
     4.1714   4.1714   5.3364   5.3364   8.1463   8.1463   8.9400   8.9401
     9.2980   9.2981

          k =-0.4935-0.3212-0.3212 (  4552 PWs)   bands (ev):

   -14.1400 -14.1400 -13.9274 -13.9274 -13.8428 -13.8428 -13.7873 -13.7873
   -13.7844 -13.7844  -7.7839  -7.7839  -6.4812  -6.4812   0.5482   0.5483
     4.0211   4.0212   6.9714   6.9714   7.0185   7.0186   9.2073   9.2073
     9.4094   9.4094

          k = 0.0000 0.1606-0.1606 (  4571 PWs)   bands (ev):

   -14.1520 -14.0546 -13.8833 -13.8822 -13.8801 -13.8488 -13.8024 -13.7941
   -13.7909 -13.7861  -9.6756  -8.1739  -7.4734  -6.5870   1.4881   4.0016
     5.3316   6.2108   7.0972   7.3231   7.5342   8.3375   8.4652   8.7245
     9.4714   9.8759

          k = 0.1645-0.0000-0.1606 (  4553 PWs)   bands (ev):

   -14.1197 -14.0007 -13.9444 -13.9348 -13.8664 -13.8316 -13.8067 -13.8030
   -13.8012 -13.7825  -9.6711  -7.9125  -6.9651  -6.4496   0.9679   4.2240
     4.6916   5.5024   6.4842   6.8691   7.3848   7.7635   8.0050   9.1574
     9.5581  10.0599

          k =-0.1645 0.1606-0.1606 (  4557 PWs)   bands (ev):

   -14.1033 -14.0163 -13.9497 -13.9339 -13.8647 -13.8384 -13.8062 -13.8045
   -13.7982 -13.7848  -9.4154  -8.0005  -7.2259  -6.5120   1.4751   3.4955
     5.3784   5.6275   6.0485   6.6677   7.3321   7.9114   8.4340   8.8985
     9.4475   9.9630

          k = 0.1645-0.1606-0.1606 (  4557 PWs)   bands (ev):

   -14.1033 -14.0163 -13.9497 -13.9339 -13.8647 -13.8384 -13.8061 -13.8046
   -13.7982 -13.7848  -9.4154  -8.0005  -7.2259  -6.5120   1.4751   3.4955
     5.3784   5.6275   6.0485   6.6677   7.3321   7.9114   8.4341   8.8984
     9.4475   9.9630

          k =-0.1645 0.1606 0.3212 (  4554 PWs)   bands (ev):

   -14.0609 -14.0609 -13.9426 -13.9426 -13.8547 -13.8547 -13.8053 -13.8053
   -13.7911 -13.7910  -8.7304  -8.7299  -6.9224  -6.9222   2.5785   2.5794
     5.2037   5.2041   6.7312   6.7313   7.6254   7.6255   8.6362   8.6363
     9.5543   9.5547

          k = 0.3290-0.0000-0.1606 (  4543 PWs)   bands (ev):

   -14.1126 -14.0996 -13.9637 -13.8846 -13.8359 -13.8340 -13.8167 -13.8094
   -13.7934 -13.7822  -8.9188  -7.5699  -6.5532  -6.4678   0.9928   3.0805
     4.0996   4.6570   5.6323   5.6875   7.4296   7.6591   7.8534   9.0528
     9.2062   9.5533

          k =-0.3290 0.1606-0.1606 (  4548 PWs)   bands (ev):

   -14.1270 -14.0775 -13.9711 -13.8900 -13.8379 -13.8309 -13.8188 -13.8097
   -13.7912 -13.7833  -8.7144  -7.6948  -6.6982  -6.4389   1.1357   2.4542
     4.0209   5.1355   5.2301   6.4047   6.5171   8.2255   8.4572   8.9820
     9.2291   9.6107

          k = 0.3290-0.1606-0.1606 (  4548 PWs)   bands (ev):

   -14.1270 -14.0775 -13.9711 -13.8900 -13.8379 -13.8309 -13.8188 -13.8096
   -13.7912 -13.7833  -8.7144  -7.6948  -6.6983  -6.4389   1.1356   2.4542
     4.0209   5.1355   5.2301   6.4046   6.5171   8.2255   8.4573   8.9820
     9.2292   9.6107

          k =-0.3290 0.1606 0.3212 (  4558 PWs)   bands (ev):

   -14.1064 -14.1064 -13.9292 -13.9291 -13.8351 -13.8351 -13.8139 -13.8139
   -13.7867 -13.7867  -8.1948  -8.1944  -6.5961  -6.5958   1.5989   1.5992
     4.6721   4.6723   5.3850   5.3854   8.0571   8.0575   8.8073   8.8073
     9.4247   9.4249

          k = 0.4935 0.1606-0.1606 (  4538 PWs)   bands (ev):

   -14.1813 -14.1382 -13.9273 -13.8750 -13.8431 -13.8430 -13.7874 -13.7854
   -13.7850 -13.7848  -7.9235  -7.9050  -6.4489  -6.4121   0.8996   1.7142
     3.9968   4.4158   4.4997   6.4370   6.9554   8.6674   8.6871   8.7324
     8.8778   9.1760

     highest occupied level (ev):    10.5079

!    total energy              =    -489.99140388 Ry
     estimated scf accuracy    <          5.6E-09 Ry

     The total energy is the sum of the following terms:
     one-electron contribution =    -162.81465647 Ry
     hartree contribution      =     122.88092985 Ry
     xc contribution           =    -121.52369056 Ry
     ewald contribution        =    -328.53398670 Ry

     convergence has been achieved in   5 iterations

     Forces acting on atoms (cartesian axes, Ry/au):

     atom    1 type  1   force =    -0.00002627    0.00004047    0.00004047
     atom    2 type  1   force =     0.00002667    0.00011270    0.00011270
     atom    3 type  2   force =     0.00008194   -0.00105595   -0.00105595
     atom    4 type  2   force =    -0.00008152    0.00099086   -0.00105957
     atom    5 type  2   force =     0.00008070    0.00097150    0.00097150
     atom    6 type  2   force =    -0.00008152   -0.00105957    0.00099086

     Total force =     0.002895     Total SCF correction =     0.000047


     Computing stress (Cartesian axis) and pressure

          total   stress  (Ry/bohr**3)                   (kbar)     P=        1.24
  -0.00001126   0.00000000   0.00000000           -1.66        0.00        0.00
   0.00000000   0.00001827   0.00000003            0.00        2.69        0.00
   0.00000000   0.00000003   0.00001827            0.00        0.00        2.69

     Energy error            =      6.0E-05 Ry
     Gradient error          =      1.1E-03 Ry/Bohr
     Cell gradient error     =      2.7E+00 kbar

     number of scf cycles    =   4
     number of bfgs steps    =   3

     enthalpy           old  =    -489.9913443388 Ry
     enthalpy           new  =    -489.9914038753 Ry

     CASE: enthalpy          _new < enthalpy          _old

     new trust radius        =       0.0037165750 bohr
     new conv_thr            =       0.0000000100 Ry

     new unit-cell volume =    391.85979 a.u.^3 (    58.06763 Ang^3 )
     density =      5.98402 g/cm^3

CELL_PARAMETERS (angstrom)
   2.905048585   0.000000010   0.000000010
   0.000000010   4.470852584   0.000002511
   0.000000010   0.000002511   4.470852584

ATOMIC_POSITIONS (angstrom)
Ge            1.4540437723        2.2363683959        2.2363683959
Ge            0.0017954285        0.0009351121        0.0009351121
O             0.0016408711        3.0998680461        3.0998680461
O             1.4541710855        3.6085286749        0.8645955422
O             0.0016415263        1.3729864911        1.3729864911
O             1.4541710855        0.8645955422        3.6085286749



     Writing output data file ./out/ge.save/
     NEW-OLD atomic charge density approx. for the potential

     Check: negative core charge=   -0.000002
     extrapolated charge   52.03791, renormalised to   52.00000

     total cpu time spent up to now is       26.4 secs

     Self-consistent Calculation

     iteration #  1     ecut=    80.00 Ry     beta= 0.40
     Davidson diagonalization with overlap
     ethr =  1.00E-06,  avg # of iterations =  4.0

     Threshold (ethr) on eigenvalues was too large:
     Diagonalizing with lowered threshold

     Davidson diagonalization with overlap
     ethr =  5.29E-08,  avg # of iterations =  2.8

     total cpu time spent up to now is       27.8 secs

     total energy              =    -489.99137498 Ry
     estimated scf accuracy    <       0.00002828 Ry

     iteration #  2     ecut=    80.00 Ry     beta= 0.40
     Davidson diagonalization with overlap
     ethr =  5.44E-08,  avg # of iterations =  3.1

     total cpu time spent up to now is       28.5 secs

     total energy              =    -489.99142648 Ry
     estimated scf accuracy    <       0.00001759 Ry

     iteration #  3     ecut=    80.00 Ry     beta= 0.40
     Davidson diagonalization with overlap
     ethr =  3.38E-08,  avg # of iterations =  1.1

     total cpu time spent up to now is       29.0 secs

     total energy              =    -489.99142268 Ry
     estimated scf accuracy    <       0.00000727 Ry

     iteration #  4     ecut=    80.00 Ry     beta= 0.40
     Davidson diagonalization with overlap
     ethr =  1.40E-08,  avg # of iterations =  2.2

     total cpu time spent up to now is       29.7 secs

     total energy              =    -489.99142454 Ry
     estimated scf accuracy    <       0.00000050 Ry

     iteration #  5     ecut=    80.00 Ry     beta= 0.40
     Davidson diagonalization with overlap
     ethr =  9.56E-10,  avg # of iterations =  3.3

     total cpu time spent up to now is       30.2 secs

     total energy              =    -489.99142433 Ry
     estimated scf accuracy    <       0.00000041 Ry

     iteration #  6     ecut=    80.00 Ry     beta= 0.40
     Davidson diagonalization with overlap
     ethr =  7.90E-10,  avg # of iterations =  4.8

     total cpu time spent up to now is       31.0 secs

     total energy              =    -489.99142422 Ry
     estimated scf accuracy    <       0.00000134 Ry

     iteration #  7     ecut=    80.00 Ry     beta= 0.40
     Davidson diagonalization with overlap
     ethr =  7.90E-10,  avg # of iterations =  3.7

     total cpu time spent up to now is       31.7 secs

     End of self-consistent calculation

          k = 0.0000 0.0000 0.0000 (  4571 PWs)   bands (ev):

   -14.2106 -14.0246 -13.9029 -13.8951 -13.8950 -13.8267 -13.8236 -13.8028
   -13.8027 -13.7912 -10.2222  -7.3830  -7.3830  -6.6818   0.4547   5.2290
     5.2292   5.7513   6.1863   7.1737   8.0758   8.5034   8.5034   9.7064
     9.7064  10.4921

          k =-0.0000-0.0000 0.1605 (  4528 PWs)   bands (ev):

   -14.1818 -14.0474 -13.8974 -13.8937 -13.8936 -13.8469 -13.8183 -13.8043
   -13.8042 -13.7953  -9.9532  -8.1397  -7.1875  -6.4999   0.9441   4.0160
     5.5963   5.9941   6.7208   7.5039   7.7423   8.5298   8.5668   8.6944
     9.6887  10.1234

          k = 0.0000 0.0000-0.3210 (  4548 PWs)   bands (ev):

   -14.1121 -14.1120 -13.8923 -13.8923 -13.8791 -13.8790 -13.8062 -13.8061
   -13.8059 -13.8058  -9.1961  -9.1959  -6.7520  -6.7518   2.2676   2.2678
     6.6521   6.6524   6.7103   6.7108   7.7609   7.7610   8.6902   8.6905
     9.6915   9.6918

          k =-0.0000 0.1605 0.1605 (  4571 PWs)   bands (ev):

   -14.1642 -14.0677 -13.8955 -13.8935 -13.8923 -13.8597 -13.8143 -13.8059
   -13.8025 -13.7980  -9.6880  -8.1924  -7.4853  -6.6087   1.4877   3.9914
     5.3174   6.2035   7.0924   7.3076   7.5247   8.3225   8.4562   8.7112
     9.4564   9.8613

          k = 0.0000 0.1605-0.3210 (  4566 PWs)   bands (ev):

   -14.1176 -14.1176 -13.8941 -13.8941 -13.8807 -13.8806 -13.8055 -13.8054
   -13.8041 -13.8040  -8.9701  -8.9699  -7.1119  -7.1117   2.7936   2.7939
     6.2320   6.2324   6.7428   6.7431   7.9456   7.9457   8.5568   8.5570
     9.4324   9.4325

          k = 0.0000-0.3210-0.3210 (  4560 PWs)   bands (ev):

   -14.1232 -14.1231 -13.8959 -13.8958 -13.8822 -13.8822 -13.8048 -13.8047
   -13.8024 -13.8024  -8.6223  -8.6221  -7.5848  -7.5848   3.4961   3.4962
     5.5726   5.5728   6.8478   6.8479   8.2314   8.2314   8.4099   8.4099
     9.0734   9.0735

          k = 0.1647-0.0000-0.0000 (  4555 PWs)   bands (ev):

   -14.1519 -13.9713 -13.9618 -13.9617 -13.8837 -13.8304 -13.8191 -13.8168
   -13.8167 -13.7911  -9.9448  -7.1401  -7.1401  -6.7384   0.4211   5.2555
     5.5206   5.5207   6.0095   6.4655   7.1434   7.4025   7.4025   9.6129
     9.6129  10.2312

          k = 0.1647-0.0000 0.1605 (  4553 PWs)   bands (ev):

   -14.1310 -14.0130 -13.9573 -13.9478 -13.8778 -13.8426 -13.8185 -13.8148
   -13.8130 -13.7944  -9.6829  -7.9280  -6.9776  -6.4712   0.9693   4.2131
     4.6824   5.4866   6.4737   6.8616   7.3701   7.7497   7.9878   9.1412
     9.5434  10.0450

          k = 0.1647 0.0000-0.3210 (  4540 PWs)   bands (ev):

   -14.0768 -14.0767 -13.9489 -13.9489 -13.8621 -13.8620 -13.8170 -13.8169
   -13.8032 -13.8031  -8.9487  -8.9486  -6.6296  -6.6294   2.3856   2.3858
     4.7914   4.7918   7.0381   7.0383   8.0816   8.0817   8.3552   8.3554
     9.5611   9.5613

          k = 0.1647 0.1605 0.1605 (  4557 PWs)   bands (ev):

   -14.1147 -14.0284 -13.9626 -13.9469 -13.8760 -13.8495 -13.8179 -13.8164
   -13.8100 -13.7967  -9.4281  -8.0188  -7.2361  -6.5306   1.4740   3.4878
     5.3628   5.6146   6.0338   6.6630   7.3193   7.8994   8.4221   8.8773
     9.4332   9.9481

          k = 0.1647 0.1605-0.3210 (  4554 PWs)   bands (ev):

   -14.0726 -14.0726 -13.9555 -13.9555 -13.8659 -13.8659 -13.8171 -13.8171
   -13.8029 -13.8029  -8.7454  -8.7453  -6.9363  -6.9362   2.5736   2.5738
     5.1901   5.1903   6.7230   6.7230   7.6091   7.6093   8.6237   8.6240
     9.5388   9.5389

          k = 0.1647-0.3210-0.3210 (  4568 PWs)   bands (ev):

   -14.0678 -14.0677 -13.9633 -13.9632 -13.8695 -13.8694 -13.8170 -13.8170
   -13.8026 -13.8026  -8.4506  -8.4505  -7.3296  -7.3295   2.7618   2.7620
     5.7864   5.7865   6.6662   6.6663   6.7416   6.7417   9.1505   9.1506
     9.1777   9.1777

          k = 0.3293-0.0000-0.0000 (  4520 PWs)   bands (ev):

   -14.0900 -14.0899 -14.0293 -13.8985 -13.8419 -13.8418 -13.8353 -13.8240
   -13.8085 -13.7924  -9.1466  -7.1134  -6.6246  -6.6245   0.4985   3.3852
     4.9373   5.6061   5.6061   6.3727   6.3729   6.4116   7.2487   9.1455
     9.1455   9.4641

          k = 0.3293-0.0000 0.1605 (  4543 PWs)   bands (ev):

   -14.1253 -14.1130 -13.9751 -13.8958 -13.8477 -13.8459 -13.8282 -13.8208
   -13.8052 -13.7940  -8.9316  -7.5871  -6.5611  -6.4781   0.9843   3.0611
     4.0903   4.6476   5.6155   5.6696   7.4178   7.6467   7.8452   9.0387
     9.1907   9.5408

          k = 0.3293 0.0000-0.3210 (  4554 PWs)   bands (ev):

   -14.1389 -14.1388 -13.9164 -13.9163 -13.8500 -13.8499 -13.8213 -13.8213
   -13.7987 -13.7987  -8.3441  -8.3440  -6.4572  -6.4571   2.1421   2.1422
     3.6806   3.6808   5.6280   5.6284   8.1275   8.1278   8.7343   8.7344
     9.3395   9.3395

          k = 0.3293 0.1605 0.1605 (  4548 PWs)   bands (ev):

   -14.1396 -14.0915 -13.9816 -13.9014 -13.8497 -13.8428 -13.8302 -13.8211
   -13.8030 -13.7951  -8.7279  -7.7130  -6.7048  -6.4488   1.1272   2.4420
     4.0079   5.1230   5.2167   6.3973   6.4929   8.2149   8.4461   8.9630
     9.2151   9.5964

          k = 0.3293 0.1605-0.3210 (  4558 PWs)   bands (ev):

   -14.1195 -14.1195 -13.9404 -13.9403 -13.8469 -13.8469 -13.8254 -13.8253
   -13.7986 -13.7985  -8.2105  -8.2104  -6.6041  -6.6040   1.5900   1.5901
     4.6606   4.6607   5.3704   5.3706   8.0400   8.0401   8.7931   8.7933
     9.4088   9.4088

          k = 0.3293-0.3210-0.3210 (  4544 PWs)   bands (ev):

   -14.0930 -14.0929 -13.9719 -13.9719 -13.8426 -13.8426 -13.8304 -13.8303
   -13.7983 -13.7983  -8.0459  -8.0458  -6.7831  -6.7830   1.2779   1.2780
     4.7493   4.7493   6.5976   6.5977   6.8252   6.8253   9.3044   9.3044
     9.3113   9.3114

          k =-0.4940 0.0000 0.0000 (  4544 PWs)   bands (ev):

   -14.1509 -14.1509 -13.9329 -13.9327 -13.8540 -13.8539 -13.7995 -13.7994
[...]
        k(    1) = (   0.0000000   0.0000000   0.0000000), wk =   0.0208333
        k(    2) = (  -0.0000000   0.0000000   0.1604315), wk =   0.0833333
        k(    3) = (   0.0000000  -0.0000000  -0.3208630), wk =   0.0416667
        k(    4) = (  -0.0000000   0.1604315   0.1604315), wk =   0.0416667
        k(    5) = (   0.0000000   0.1604315  -0.3208630), wk =   0.0833333
        k(    6) = (   0.0000000  -0.3208630  -0.3208630), wk =   0.0208333
        k(    7) = (   0.1646651  -0.0000000  -0.0000000), wk =   0.0416667
        k(    8) = (   0.1646651   0.0000000   0.1604315), wk =   0.0833333
        k(    9) = (   0.1646651  -0.0000000  -0.3208630), wk =   0.0833333
        k(   10) = (   0.1646651   0.1604315   0.1604315), wk =   0.0416667
        k(   11) = (   0.1646651   0.1604315  -0.3208630), wk =   0.0833333
        k(   12) = (   0.1646651  -0.3208630  -0.3208630), wk =   0.0416667
        k(   13) = (   0.3293301  -0.0000000  -0.0000000), wk =   0.0416667
        k(   14) = (   0.3293301   0.0000000   0.1604315), wk =   0.0833333
        k(   15) = (   0.3293301  -0.0000000  -0.3208630), wk =   0.0833333
        k(   16) = (   0.3293301   0.1604315   0.1604315), wk =   0.0416667
        k(   17) = (   0.3293301   0.1604315  -0.3208630), wk =   0.0833333
        k(   18) = (   0.3293302  -0.3208630  -0.3208630), wk =   0.0416667
        k(   19) = (  -0.4939952   0.0000000   0.0000000), wk =   0.0208333
        k(   20) = (  -0.4939952   0.0000000   0.1604315), wk =   0.0833333
        k(   21) = (  -0.4939952  -0.0000000  -0.3208630), wk =   0.0416667
        k(   22) = (  -0.4939952   0.1604315   0.1604315), wk =   0.0416667
        k(   23) = (  -0.4939952   0.1604315  -0.3208630), wk =   0.0833333
        k(   24) = (  -0.4939952  -0.3208630  -0.3208630), wk =   0.0208333
        k(   25) = (   0.0000000   0.1604315  -0.1604315), wk =   0.0416667
        k(   26) = (   0.1646651  -0.0000000  -0.1604315), wk =   0.0833333
        k(   27) = (  -0.1646651   0.1604315  -0.1604315), wk =   0.0833333
        k(   28) = (   0.1646651  -0.1604315  -0.1604315), wk =   0.0416667
        k(   29) = (  -0.1646651   0.1604315   0.3208630), wk =   0.0833333
        k(   30) = (   0.3293301  -0.0000000  -0.1604315), wk =   0.0833333
        k(   31) = (  -0.3293301   0.1604315  -0.1604315), wk =   0.0833333
        k(   32) = (   0.3293301  -0.1604315  -0.1604315), wk =   0.0416667
        k(   33) = (  -0.3293302   0.1604315   0.3208630), wk =   0.0833333
        k(   34) = (   0.4939952   0.1604315  -0.1604315), wk =   0.0416667

     Dense  grid:    37939 G-vectors     FFT dimensions: (  32,  50,  50)

     Estimated max dynamical RAM per process >      18.72 MB

     Estimated total dynamical RAM >     149.76 MB

     Check: negative core charge=   -0.000001

     Initial potential from superposition of free atoms

     starting charge   51.99834, renormalised to   52.00000
     Starting wfcs are   34 randomized atomic wfcs

     total cpu time spent up to now is       38.4 secs

     Self-consistent Calculation

     iteration #  1     ecut=    80.00 Ry     beta= 0.40
     Davidson diagonalization with overlap
     ethr =  1.00E-06,  avg # of iterations =  9.0

     total cpu time spent up to now is       40.1 secs

     total energy              =    -489.73222166 Ry
     estimated scf accuracy    <       1.25848607 Ry

     iteration #  2     ecut=    80.00 Ry     beta= 0.40
     Davidson diagonalization with overlap
     ethr =  2.42E-03,  avg # of iterations =  2.7

     total cpu time spent up to now is       40.8 secs

     total energy              =    -489.98724935 Ry
     estimated scf accuracy    <       0.03378183 Ry

     iteration #  3     ecut=    80.00 Ry     beta= 0.40
     Davidson diagonalization with overlap
     ethr =  6.50E-05,  avg # of iterations =  3.1

     total cpu time spent up to now is       41.4 secs

     total energy              =    -489.99051603 Ry
     estimated scf accuracy    <       0.01350082 Ry

     iteration #  4     ecut=    80.00 Ry     beta= 0.40
     Davidson diagonalization with overlap
     ethr =  2.60E-05,  avg # of iterations =  2.0

     total cpu time spent up to now is       42.1 secs

     total energy              =    -489.99176426 Ry
     estimated scf accuracy    <       0.00316434 Ry

     iteration #  5     ecut=    80.00 Ry     beta= 0.40
     Davidson diagonalization with overlap
     ethr =  6.09E-06,  avg # of iterations =  2.0

     total cpu time spent up to now is       42.7 secs

     total energy              =    -489.99229392 Ry
     estimated scf accuracy    <       0.00002405 Ry

     iteration #  6     ecut=    80.00 Ry     beta= 0.40
     Davidson diagonalization with overlap
     ethr =  4.62E-08,  avg # of iterations =  5.3

     total cpu time spent up to now is       43.7 secs

     total energy              =    -489.99228600 Ry
     estimated scf accuracy    <       0.00015693 Ry

     iteration #  7     ecut=    80.00 Ry     beta= 0.40
     Davidson diagonalization with overlap
     ethr =  4.62E-08,  avg # of iterations =  4.8

     total cpu time spent up to now is       44.6 secs

     total energy              =    -489.99231947 Ry
     estimated scf accuracy    <       0.00000045 Ry

     iteration #  8     ecut=    80.00 Ry     beta= 0.40
     Davidson diagonalization with overlap
     ethr =  8.74E-10,  avg # of iterations =  3.0

     total cpu time spent up to now is       45.3 secs

     total energy              =    -489.99231940 Ry
     estimated scf accuracy    <       0.00000046 Ry

     iteration #  9     ecut=    80.00 Ry     beta= 0.40
     Davidson diagonalization with overlap
     ethr =  8.74E-10,  avg # of iterations =  3.5

     total cpu time spent up to now is       46.1 secs

     End of self-consistent calculation

          k = 0.0000 0.0000 0.0000 (  4711 PWs)   bands (ev):

   -14.2214 -14.0361 -13.9143 -13.9065 -13.9065 -13.8381 -13.8352 -13.8145
   -13.8144 -13.8029 -10.2274  -7.3908  -7.3907  -6.6935   0.4494   5.2212
     5.2213   5.7461   6.1802   7.1622   8.0656   8.4949   8.4949   9.6963
     9.6963  10.4816

          k =-0.0000 0.0000 0.1604 (  4744 PWs)   bands (ev):

   -14.1927 -14.0589 -13.9088 -13.9052 -13.9051 -13.8582 -13.8298 -13.8160
   -13.8159 -13.8070  -9.9587  -8.1472  -7.1957  -6.5107   0.9382   4.0077
     5.5880   5.9884   6.7139   7.4953   7.7325   8.5193   8.5580   8.6850
     9.6779  10.1125

          k = 0.0000-0.0000-0.3209 (  4772 PWs)   bands (ev):

   -14.1233 -14.1232 -13.9038 -13.9037 -13.8904 -13.8904 -13.8178 -13.8178
   -13.8175 -13.8175  -9.2024  -9.2022  -6.7615  -6.7614   2.2604   2.2605
     6.6452   6.6455   6.7016   6.7019   7.7529   7.7530   8.6811   8.6814
     9.6804   9.6806

          k =-0.0000 0.1604 0.1604 (  4729 PWs)   bands (ev):

   -14.1752 -14.0791 -13.9069 -13.9048 -13.9037 -13.8711 -13.8258 -13.8175
   -13.8142 -13.8096  -9.6938  -8.2005  -7.4927  -6.6188   1.4811   3.9827
     5.3089   6.1975   7.0856   7.2994   7.5155   8.3126   8.4482   8.7020
     9.4465   9.8514

          k = 0.0000 0.1604-0.3209 (  4724 PWs)   bands (ev):

   -14.1287 -14.1287 -13.9056 -13.9055 -13.8920 -13.8920 -13.8171 -13.8171
   -13.8158 -13.8157  -8.9769  -8.9768  -7.1205  -7.1203   2.7857   2.7858
     6.2229   6.2232   6.7357   6.7359   7.9380   7.9381   8.5483   8.5485
     9.4226   9.4227

          k = 0.0000-0.3209-0.3209 (  4756 PWs)   bands (ev):

   -14.1342 -14.1342 -13.9073 -13.9073 -13.8936 -13.8935 -13.8164 -13.8164
   -13.8141 -13.8141  -8.6302  -8.6302  -7.5920  -7.5920   3.4872   3.4873
     5.5634   5.5634   6.8403   6.8404   8.2244   8.2244   8.4018   8.4018
     9.0635   9.0635

          k = 0.1647-0.0000-0.0000 (  4703 PWs)   bands (ev):

   -14.1627 -13.9829 -13.9732 -13.9731 -13.8951 -13.8418 -13.8307 -13.8284
   -13.8284 -13.8028  -9.9501  -7.1478  -7.1478  -6.7495   0.4158   5.2489
     5.5128   5.5128   6.0002   6.4592   7.1308   7.3940   7.3940   9.6031
     9.6031  10.2214

          k = 0.1647 0.0000 0.1604 (  4735 PWs)   bands (ev):

   -14.1419 -14.0243 -13.9687 -13.9593 -13.8892 -13.8541 -13.8301 -13.8264
   -13.8246 -13.8061  -9.6886  -7.9356  -6.9857  -6.4813   0.9633   4.2047
     4.6759   5.4783   6.4661   6.8538   7.3609   7.7408   7.9779   9.1312
     9.5335  10.0347

          k = 0.1647-0.0000-0.3209 (  4728 PWs)   bands (ev):

   -14.0878 -14.0878 -13.9604 -13.9604 -13.8735 -13.8735 -13.8286 -13.8286
   -13.8148 -13.8148  -8.9552  -8.9550  -6.6388  -6.6386   2.3782   2.3783
     4.7845   4.7848   7.0303   7.0304   8.0719   8.0720   8.3459   8.3461
     9.5508   9.5509

          k = 0.1647 0.1604 0.1604 (  4729 PWs)   bands (ev):

   -14.1256 -14.0397 -13.9740 -13.9584 -13.8874 -13.8610 -13.8296 -13.8280
   -13.8216 -13.8083  -9.4340  -8.0270  -7.2435  -6.5402   1.4674   3.4805
     5.3547   5.6062   6.0252   6.6561   7.3107   7.8910   8.4125   8.8666
     9.4233   9.9380

          k = 0.1647 0.1604-0.3209 (  4740 PWs)   bands (ev):

   -14.0837 -14.0837 -13.9670 -13.9669 -13.8773 -13.8773 -13.8288 -13.8287
   -13.8145 -13.8145  -8.7524  -8.7523  -6.9447  -6.9446   2.5662   2.5663
     5.1822   5.1823   6.7156   6.7156   7.5993   7.5994   8.6147   8.6149
     9.5288   9.5288

          k = 0.1647-0.3209-0.3209 (  4752 PWs)   bands (ev):

   -14.0788 -14.0788 -13.9747 -13.9747 -13.8809 -13.8809 -13.8287 -13.8286
   -13.8143 -13.8142  -8.4585  -8.4585  -7.3367  -7.3367   2.7544   2.7545
     5.7776   5.7777   6.6593   6.6593   6.7316   6.7317   9.1408   9.1409
     9.1685   9.1685

          k = 0.3293-0.0000-0.0000 (  4716 PWs)   bands (ev):

   -14.1013 -14.1013 -14.0402 -13.9098 -13.8536 -13.8535 -13.8468 -13.8355
   -13.8201 -13.8041  -9.1524  -7.1225  -6.6322  -6.6321   0.4919   3.3757
     4.9289   5.5973   5.5973   6.3648   6.3648   6.4009   7.2421   9.1360
     9.1360   9.4556

          k = 0.3293 0.0000 0.1604 (  4735 PWs)   bands (ev):

   -14.1364 -14.1242 -13.9863 -13.9072 -13.8592 -13.8575 -13.8398 -13.8324
   -13.8168 -13.8056  -8.9376  -7.5951  -6.5690  -6.4864   0.9772   3.0519
     4.0834   4.6399   5.6070   5.6606   7.4085   7.6378   7.8373   9.0294
     9.1805   9.5315

          k = 0.3293-0.0000-0.3209 (  4744 PWs)   bands (ev):

   -14.1499 -14.1499 -13.9278 -13.9278 -13.8615 -13.8615 -13.8328 -13.8328
   -13.8103 -13.8103  -8.3509  -8.3508  -6.4654  -6.4653   2.1336   2.1337
     3.6743   3.6744   5.6194   5.6196   8.1192   8.1194   8.7241   8.7242
     9.3297   9.3297

          k = 0.3293 0.1604 0.1604 (  4740 PWs)   bands (ev):

   -14.1507 -14.1029 -13.9927 -13.9129 -13.8612 -13.8545 -13.8416 -13.8327
   -13.8146 -13.8067  -8.7343  -7.7210  -6.7121  -6.4571   1.1202   2.4342
     4.0003   5.1157   5.2085   6.3892   6.4822   8.2066   8.4368   8.9523
     9.2055   9.5867

          k = 0.3293 0.1604-0.3209 (  4756 PWs)   bands (ev):

   -14.1307 -14.1307 -13.9516 -13.9516 -13.8585 -13.8585 -13.8369 -13.8369
   -13.8102 -13.8101  -8.2178  -8.2176  -6.6119  -6.6119   1.5830   1.5832
     4.6530   4.6530   5.3621   5.3623   8.0295   8.0295   8.7836   8.7838
     9.3988   9.3988

          k = 0.3293-0.3209-0.3209 (  4736 PWs)   bands (ev):

   -14.1043 -14.1043 -13.9829 -13.9829 -13.8543 -13.8543 -13.8418 -13.8418
   -13.8100 -13.8099  -8.0538  -8.0537  -6.7902  -6.7902   1.2715   1.2716
     4.7427   4.7427   6.5890   6.5891   6.8133   6.8134   9.2940   9.2940
     9.3017   9.3017

          k =-0.4940 0.0000 0.0000 (  4680 PWs)   bands (ev):

   -14.1623 -14.1623 -13.9439 -13.9438 -13.8657 -13.8656 -13.8110 -13.8110
   -13.8098 -13.8098  -8.0441  -8.0438  -6.3541  -6.3541   1.3837   1.3841
     4.8911   4.8911   5.4820   5.4822   6.9092   6.9093   8.3478   8.3478
     8.6836   8.6836

          k =-0.4940 0.0000 0.1604 (  4740 PWs)   bands (ev):

   -14.1860 -14.1859 -13.9203 -13.9202 -13.8659 -13.8659 -13.8094 -13.8094
   -13.8087 -13.8087  -7.9944  -7.9942  -6.4099  -6.4099   1.5017   1.5020
     4.2885   4.2885   5.0739   5.0739   7.7486   7.7488   8.5511   8.5512
     8.9027   8.9027

          k =-0.4940-0.0000-0.3209 (  4748 PWs)   bands (ev):

   -14.2058 -14.2058 -13.9028 -13.9028 -13.8637 -13.8637 -13.8086 -13.8085
   -13.8070 -13.8070  -7.9404  -7.9403  -6.4705  -6.4705   1.6805   1.6805
     3.6120   3.6120   5.0580   5.0580   7.8525   7.8525   9.1195   9.1195
     9.1639   9.1639

          k =-0.4940 0.1604 0.1604 (  4758 PWs)   bands (ev):

   -14.2057 -14.1641 -13.9481 -13.8974 -13.8667 -13.8667 -13.8100 -13.8087
   -13.8082 -13.8076  -7.9464  -7.9287  -6.4610  -6.4238   0.8792   1.6866
     3.9829   4.3927   4.4762   6.4010   6.9456   8.6476   8.6584   8.7053
     8.8589   9.1530

          k =-0.4940 0.1604-0.3209 (  4748 PWs)   bands (ev):

   -14.1877 -14.1877 -13.9226 -13.9226 -13.8663 -13.8662 -13.8088 -13.8087
   -13.8078 -13.8078  -7.8766  -7.8766  -6.4799  -6.4799   0.9823   0.9824
     4.1516   4.1516   5.3122   5.3122   8.1243   8.1243   8.9104   8.9104
     9.2738   9.2738

          k =-0.4940-0.3209-0.3209 (  4752 PWs)   bands (ev):

   -14.1659 -14.1658 -13.9482 -13.9482 -13.8665 -13.8665 -13.8098 -13.8098
   -13.8078 -13.8078  -7.8096  -7.8095  -6.4920  -6.4920   0.5327   0.5328
     4.0020   4.0020   6.9284   6.9284   7.0081   7.0082   9.1742   9.1742
     9.3853   9.3853

          k = 0.0000 0.1604-0.1604 (  4729 PWs)   bands (ev):

   -14.1752 -14.0791 -13.9069 -13.9048 -13.9038 -13.8711 -13.8258 -13.8175
   -13.8143 -13.8096  -9.6938  -8.2005  -7.4927  -6.6188   1.4811   3.9827
     5.3089   6.1975   7.0856   7.2994   7.5154   8.3126   8.4482   8.7020
     9.4465   9.8514

          k = 0.1647-0.0000-0.1604 (  4735 PWs)   bands (ev):

   -14.1419 -14.0243 -13.9687 -13.9593 -13.8892 -13.8541 -13.8301 -13.8264
   -13.8246 -13.8061  -9.6886  -7.9356  -6.9857  -6.4813   0.9633   4.2047
     4.6759   5.4783   6.4661   6.8538   7.3609   7.7408   7.9779   9.1312
     9.5335  10.0347

          k =-0.1647 0.1604-0.1604 (  4729 PWs)   bands (ev):

   -14.1256 -14.0397 -13.9740 -13.9584 -13.8874 -13.8610 -13.8296 -13.8280
   -13.8216 -13.8083  -9.4340  -8.0270  -7.2435  -6.5402   1.4674   3.4805
     5.3546   5.6063   6.0252   6.6561   7.3107   7.8910   8.4124   8.8666
     9.4233   9.9380

          k = 0.1647-0.1604-0.1604 (  4729 PWs)   bands (ev):

   -14.1256 -14.0397 -13.9740 -13.9584 -13.8874 -13.8610 -13.8296 -13.8280
   -13.8216 -13.8083  -9.4340  -8.0270  -7.2435  -6.5402   1.4674   3.4805
     5.3547   5.6062   6.0252   6.6561   7.3107   7.8910   8.4125   8.8666
     9.4233   9.9380

          k =-0.1647 0.1604 0.3209 (  4740 PWs)   bands (ev):

   -14.0837 -14.0837 -13.9670 -13.9669 -13.8773 -13.8773 -13.8288 -13.8287
   -13.8145 -13.8145  -8.7524  -8.7523  -6.9447  -6.9446   2.5662   2.5663
     5.1822   5.1824   6.7156   6.7156   7.5993   7.5993   8.6147   8.6149
     9.5288   9.5288

          k = 0.3293-0.0000-0.1604 (  4735 PWs)   bands (ev):

   -14.1364 -14.1242 -13.9863 -13.9072 -13.8592 -13.8575 -13.8398 -13.8324
   -13.8168 -13.8056  -8.9376  -7.5951  -6.5690  -6.4864   0.9772   3.0519
     4.0834   4.6399   5.6070   5.6606   7.4085   7.6378   7.8373   9.0294
     9.1805   9.5315

          k =-0.3293 0.1604-0.1604 (  4740 PWs)   bands (ev):

   -14.1507 -14.1028 -13.9927 -13.9128 -13.8612 -13.8545 -13.8416 -13.8327
   -13.8146 -13.8067  -8.7343  -7.7211  -6.7121  -6.4571   1.1202   2.4341
     4.0003   5.1157   5.2085   6.3892   6.4822   8.2066   8.4368   8.9523
     9.2056   9.5867

          k = 0.3293-0.1604-0.1604 (  4740 PWs)   bands (ev):

   -14.1507 -14.1029 -13.9927 -13.9129 -13.8612 -13.8545 -13.8416 -13.8327
   -13.8146 -13.8067  -8.7343  -7.7210  -6.7121  -6.4571   1.1202   2.4342
     4.0003   5.1157   5.2085   6.3892   6.4822   8.2066   8.4368   8.9523
     9.2055   9.5867

          k =-0.3293 0.1604 0.3209 (  4756 PWs)   bands (ev):

   -14.1307 -14.1307 -13.9516 -13.9516 -13.8585 -13.8585 -13.8369 -13.8369
   -13.8102 -13.8101  -8.2177  -8.2177  -6.6119  -6.6118   1.5830   1.5831
     4.6530   4.6531   5.3621   5.3623   8.0295   8.0296   8.7836   8.7838
     9.3988   9.3988

          k = 0.4940 0.1604-0.1604 (  4758 PWs)   bands (ev):

   -14.2057 -14.1641 -13.9481 -13.8974 -13.8667 -13.8667 -13.8100 -13.8088
   -13.8082 -13.8076  -7.9464  -7.9288  -6.4610  -6.4238   0.8793   1.6866
     3.9829   4.3927   4.4762   6.4010   6.9457   8.6476   8.6584   8.7053
     8.8589   9.1530

     highest occupied level (ev):    10.4816

!    total energy              =    -489.99231949 Ry
     estimated scf accuracy    <          4.1E-09 Ry

     The total energy is the sum of the following terms:
     one-electron contribution =    -163.28219702 Ry
     hartree contribution      =     123.07148321 Ry
     xc contribution           =    -121.52166018 Ry
     ewald contribution        =    -328.25994550 Ry

     convergence has been achieved in   9 iterations

     Forces acting on atoms (cartesian axes, Ry/au):

     atom    1 type  1   force =     0.00005669    0.00001697    0.00001697
     atom    2 type  1   force =    -0.00005818    0.00001033    0.00001033
     atom    3 type  2   force =    -0.00002048    0.00021448    0.00021448
     atom    4 type  2   force =     0.00002124   -0.00021880    0.00016830
     atom    5 type  2   force =    -0.00002051   -0.00019128   -0.00019128
     atom    6 type  2   force =     0.00002124    0.00016830   -0.00021880

     Total force =     0.000572     Total SCF correction =     0.000057


     Computing stress (Cartesian axis) and pressure

          total   stress  (Ry/bohr**3)                   (kbar)     P=        4.28
   0.00002447  -0.00000000  -0.00000000            3.60       -0.00       -0.00
  -0.00000000   0.00003143   0.00000000           -0.00        4.62        0.00
  -0.00000000   0.00000000   0.00003143           -0.00        0.00        4.62


     Writing output data file ./out/ge.save/
 
     init_run     :      0.70s CPU      0.85s WALL (       2 calls)
     electrons    :     34.54s CPU     40.35s WALL (       7 calls)
     update_pot   :      0.80s CPU      0.82s WALL (       5 calls)
     forces       :      1.33s CPU      1.35s WALL (       7 calls)
     stress       :      3.15s CPU      3.17s WALL (       7 calls)

     Called by init_run:
     wfcinit      :      0.41s CPU      0.50s WALL (       2 calls)
     potinit      :      0.09s CPU      0.10s WALL (       2 calls)
     hinit0       :      0.17s CPU      0.21s WALL (       2 calls)

     Called by electrons:
     c_bands      :     31.22s CPU     36.81s WALL (      57 calls)
     sum_band     :      3.12s CPU      3.23s WALL (      57 calls)
     v_of_rho     :      0.17s CPU      0.18s WALL (      61 calls)
     mix_rho      :      0.03s CPU      0.04s WALL (      57 calls)

     Called by c_bands:
     init_us_2    :      0.69s CPU      0.78s WALL (    4420 calls)
     cegterg      :     27.27s CPU     30.87s WALL (    1938 calls)

     Called by *egterg:
     cdiaghg      :      6.36s CPU      8.50s WALL (    7670 calls)
     h_psi        :     17.10s CPU     18.13s WALL (    8010 calls)
     g_psi        :      0.16s CPU      0.19s WALL (    6004 calls)

     Called by h_psi:
     h_psi:calbec :      1.37s CPU      1.44s WALL (    8010 calls)
     vloc_psi     :     14.55s CPU     15.47s WALL (    8010 calls)
     add_vuspsi   :      1.05s CPU      1.09s WALL (    8010 calls)

     General routines
     calbec       :      1.65s CPU      1.72s WALL (    9200 calls)
     fft          :      0.09s CPU      0.12s WALL (     786 calls)
     ffts         :      0.00s CPU      0.00s WALL (      57 calls)
     fftw         :     14.73s CPU     15.59s WALL (  369004 calls)
 
     Parallel routines
 
     PWSCF        :     40.64s CPU     47.05s WALL

 
   This run was terminated on:  15:33: 7  19May2025            

=------------------------------------------------------------------------------=
   JOB DONE.
=------------------------------------------------------------------------------=
