
     Program PWSCF v.6.8 starts on 28Apr2025 at 10:45:56 

     This program is part of the open-source Quantum ESPRESSO suite
     for quantum simulation of materials; please cite
         "P. Giannozzi et al., J. Phys.:Condens. Matter 21 395502 (2009);
         "P. Giannozzi et al., J. Phys.:Condens. Matter 29 465901 (2017);
         "P. Giannozzi et al., J. Chem. Phys. 152 154105 (2020);
          URL http://www.quantum-espresso.org", 
     in publications or presentations arising from this work. More details at
     http://www.quantum-espresso.org/quote

     Parallel version (MPI & OpenMP), running on      56 processor cores
     Number of MPI processes:                56
     Threads/MPI process:                     1

     MPI processes distributed on     1 nodes
     R & G space division:  proc/nbgrp/npool/nimage =      56
     186316 MiB available memory on the printing compute node when the environment starts
 
     Reading input from surface_relax.in
Warning: card &CELL ignored
Warning: card / ignored
Warning: card &FCP ignored
Warning: card / ignored
Warning: card &RISM ignored
Warning: card / ignored

     Current dimensions of program PWSCF are:
     Max number of different atomic species (ntypx) = 10
     Max number of k-points (npk) =  40000
     Max angular momentum in pseudopotentials (lmaxx) =  4

     gamma-point specific algorithms are used
     Found symmetry operation: I + (  0.0000  0.2500  0.0000)
     This is a supercell, fractional translations are disabled
     Message from routine setup:
     using ibrav=0 with symmetry is DISCOURAGED, use correct ibrav instead

     Subspace diagonalization in iterative solution of the eigenvalue problem:
     one sub-group per band group will be used
     scalapack distributed-memory algorithm (size of sub-group:  7*  7 procs)

 
     Parallelization info
     --------------------
     sticks:   dense  smooth     PW     G-vecs:    dense   smooth      PW
     Min         270     270     66                34834    34834    4338
     Max         272     272     68                34856    34856    4356
     Sum       15199   15199   3805              1951471  1951471  243745
 
     Using Slab Decomposition
 


     bravais-lattice index     =            0
     lattice parameter (alat)  =      30.3318  a.u.
     unit-cell volume          =   31089.1928 (a.u.)^3
     number of atoms/cell      =          128
     number of atomic types    =            1
     number of electrons       =      1792.00
     number of Kohn-Sham states=         1075
     kinetic-energy cutoff     =      60.0000  Ry
     charge density cutoff     =     240.0000  Ry
     scf convergence threshold =      1.0E-06
     mixing beta               =       0.4000
     number of iterations used =            8  plain     mixing
     energy convergence thresh.=      1.0E-04
     force convergence thresh. =      1.0E-03
     Exchange-correlation= PBE
                           (   1   4   3   4   0   0   0)
     nstep                     =           50


     celldm(1)=  30.331824  celldm(2)=   0.000000  celldm(3)=   0.000000
     celldm(4)=   0.000000  celldm(5)=   0.000000  celldm(6)=   0.000000

     crystal axes: (cart. coord. in units of alat)
               a(1) = (   1.000000   0.000000   0.000000 )  
               a(2) = (  -0.500000   0.866025   0.000000 )  
               a(3) = (   0.000000   0.000000   1.286421 )  

     reciprocal axes: (cart. coord. in units 2 pi/alat)
               b(1) = (  1.000000  0.577350  0.000000 )  
               b(2) = (  0.000000  1.154701  0.000000 )  
               b(3) = (  0.000000  0.000000  0.777350 )  


     PseudoPot. # 1 for Ge read from file:
     ./Ge.upf
     MD5 check sum: 087fa14d6c89b52166990835c3b338da
     Pseudo is Norm-conserving + core correction, Zval = 14.0
     Generated using ONCVPSP code by D. R. Hamann
     Using radial grid of 1560 points,  6 beta functions with: 
                l(1) =   0
                l(2) =   0
                l(3) =   1
                l(4) =   1
                l(5) =   2
                l(6) =   2

     atomic species   valence    mass     pseudopotential
        Ge            14.00    72.63000     Ge( 1.00)

      6 Sym. Ops. (no inversion) found



   Cartesian axes

     site n.     atom                  positions (alat units)
         1           Ge  tau(   1) = (   0.1250000   0.0721688   0.3625399  )
         2           Ge  tau(   2) = (  -0.1250000   0.2165064   0.3115088  )
         3           Ge  tau(   3) = (   0.0000001   0.1443376   0.5666641  )
         4           Ge  tau(   4) = (   0.1250000   0.0721688   0.5156330  )
         5           Ge  tau(   5) = (  -0.1249999   0.2165063   0.7707882  )
         6           Ge  tau(   6) = (   0.0000001   0.1443375   0.7197572  )
         7           Ge  tau(   7) = (   0.1250001   0.0721687   0.9749124  )
         8           Ge  tau(   8) = (  -0.1249999   0.2165063   0.9238814  )
         9           Ge  tau(   9) = (   0.0000001   0.2886751   0.3625399  )
        10           Ge  tau(  10) = (  -0.2499999   0.4330127   0.3115088  )
        11           Ge  tau(  11) = (  -0.1249999   0.3608439   0.5666641  )
        12           Ge  tau(  12) = (   0.0000001   0.2886751   0.5156330  )
        13           Ge  tau(  13) = (  -0.2499999   0.4330127   0.7707882  )
        14           Ge  tau(  14) = (  -0.1249999   0.3608439   0.7197572  )
        15           Ge  tau(  15) = (   0.0000001   0.2886751   0.9749124  )
        16           Ge  tau(  16) = (  -0.2499999   0.4330127   0.9238814  )
        17           Ge  tau(  17) = (  -0.1249999   0.5051815   0.3625399  )
        18           Ge  tau(  18) = (  -0.3749999   0.6495191   0.3115088  )
        19           Ge  tau(  19) = (  -0.2499999   0.5773503   0.5666641  )
        20           Ge  tau(  20) = (  -0.1249999   0.5051815   0.5156330  )
        21           Ge  tau(  21) = (  -0.3749998   0.6495190   0.7707882  )
        22           Ge  tau(  22) = (  -0.2499999   0.5773503   0.7197572  )
        23           Ge  tau(  23) = (  -0.1249998   0.5051815   0.9749124  )
        24           Ge  tau(  24) = (  -0.3749998   0.6495190   0.9238814  )
        25           Ge  tau(  25) = (  -0.2499999   0.7216878   0.3625399  )
        26           Ge  tau(  26) = (   0.0000000  -0.0000000   0.3115088  )
        27           Ge  tau(  27) = (  -0.3749998   0.7938566   0.5666641  )
        28           Ge  tau(  28) = (  -0.2499999   0.7216878   0.5156330  )
        29           Ge  tau(  29) = (   0.0000001  -0.0000000   0.7707882  )
        30           Ge  tau(  30) = (  -0.3749998   0.7938566   0.7197572  )
        31           Ge  tau(  31) = (  -0.2499998   0.7216878   0.9749124  )
        32           Ge  tau(  32) = (   0.0000001  -0.0000000   0.9238814  )
        33           Ge  tau(  33) = (   0.3750000   0.0721688   0.3625399  )
        34           Ge  tau(  34) = (   0.1250000   0.2165064   0.3115088  )
        35           Ge  tau(  35) = (   0.2500001   0.1443376   0.5666641  )
        36           Ge  tau(  36) = (   0.3750000   0.0721688   0.5156330  )
        37           Ge  tau(  37) = (   0.1250001   0.2165063   0.7707882  )
        38           Ge  tau(  38) = (   0.2500001   0.1443375   0.7197572  )
        39           Ge  tau(  39) = (   0.3750001   0.0721687   0.9749124  )
        40           Ge  tau(  40) = (   0.1250001   0.2165063   0.9238814  )
        41           Ge  tau(  41) = (   0.2500001   0.2886751   0.3625399  )
        42           Ge  tau(  42) = (   0.0000001   0.4330127   0.3115088  )
        43           Ge  tau(  43) = (   0.1250001   0.3608439   0.5666641  )
        44           Ge  tau(  44) = (   0.2500001   0.2886751   0.5156330  )
        45           Ge  tau(  45) = (   0.0000001   0.4330127   0.7707882  )
        46           Ge  tau(  46) = (   0.1250001   0.3608439   0.7197572  )
        47           Ge  tau(  47) = (   0.2500001   0.2886751   0.9749124  )
        48           Ge  tau(  48) = (   0.0000001   0.4330127   0.9238814  )
        49           Ge  tau(  49) = (   0.1250001   0.5051815   0.3625399  )
        50           Ge  tau(  50) = (  -0.1249999   0.6495191   0.3115088  )
        51           Ge  tau(  51) = (   0.0000001   0.5773503   0.5666641  )
        52           Ge  tau(  52) = (   0.1250001   0.5051815   0.5156330  )
        53           Ge  tau(  53) = (  -0.1249998   0.6495190   0.7707882  )
        54           Ge  tau(  54) = (   0.0000001   0.5773503   0.7197572  )
        55           Ge  tau(  55) = (   0.1250002   0.5051815   0.9749124  )
        56           Ge  tau(  56) = (  -0.1249998   0.6495190   0.9238814  )
        57           Ge  tau(  57) = (   0.0000001   0.7216878   0.3625399  )
        58           Ge  tau(  58) = (   0.2500000  -0.0000000   0.3115088  )
        59           Ge  tau(  59) = (  -0.1249998   0.7938566   0.5666641  )
        60           Ge  tau(  60) = (   0.0000001   0.7216878   0.5156330  )
        61           Ge  tau(  61) = (   0.2500001  -0.0000000   0.7707882  )
        62           Ge  tau(  62) = (  -0.1249998   0.7938566   0.7197572  )
        63           Ge  tau(  63) = (   0.0000002   0.7216878   0.9749124  )
        64           Ge  tau(  64) = (   0.2500001  -0.0000000   0.9238814  )
        65           Ge  tau(  65) = (   0.6250000   0.0721688   0.3625399  )
        66           Ge  tau(  66) = (   0.3750000   0.2165064   0.3115088  )
        67           Ge  tau(  67) = (   0.5000001   0.1443376   0.5666641  )
        68           Ge  tau(  68) = (   0.6250000   0.0721688   0.5156330  )
        69           Ge  tau(  69) = (   0.3750001   0.2165063   0.7707882  )
        70           Ge  tau(  70) = (   0.5000001   0.1443375   0.7197572  )
        71           Ge  tau(  71) = (   0.6250001   0.0721687   0.9749124  )
        72           Ge  tau(  72) = (   0.3750001   0.2165063   0.9238814  )
        73           Ge  tau(  73) = (   0.5000001   0.2886751   0.3625399  )
        74           Ge  tau(  74) = (   0.2500001   0.4330127   0.3115088  )
        75           Ge  tau(  75) = (   0.3750001   0.3608439   0.5666641  )
        76           Ge  tau(  76) = (   0.5000001   0.2886751   0.5156330  )
        77           Ge  tau(  77) = (   0.2500001   0.4330127   0.7707882  )
        78           Ge  tau(  78) = (   0.3750001   0.3608439   0.7197572  )
        79           Ge  tau(  79) = (   0.5000001   0.2886751   0.9749124  )
        80           Ge  tau(  80) = (   0.2500001   0.4330127   0.9238814  )
        81           Ge  tau(  81) = (   0.3750001   0.5051815   0.3625399  )
        82           Ge  tau(  82) = (   0.1250001   0.6495191   0.3115088  )
        83           Ge  tau(  83) = (   0.2500001   0.5773503   0.5666641  )
        84           Ge  tau(  84) = (   0.3750001   0.5051815   0.5156330  )
        85           Ge  tau(  85) = (   0.1250002   0.6495190   0.7707882  )
        86           Ge  tau(  86) = (   0.2500001   0.5773503   0.7197572  )
        87           Ge  tau(  87) = (   0.3750002   0.5051815   0.9749124  )
        88           Ge  tau(  88) = (   0.1250002   0.6495190   0.9238814  )
        89           Ge  tau(  89) = (   0.2500001   0.7216878   0.3625399  )
        90           Ge  tau(  90) = (   0.5000000  -0.0000000   0.3115088  )
        91           Ge  tau(  91) = (   0.1250002   0.7938566   0.5666641  )
        92           Ge  tau(  92) = (   0.2500001   0.7216878   0.5156330  )
        93           Ge  tau(  93) = (   0.5000001  -0.0000000   0.7707882  )
        94           Ge  tau(  94) = (   0.1250002   0.7938566   0.7197572  )
        95           Ge  tau(  95) = (   0.2500002   0.7216878   0.9749124  )
        96           Ge  tau(  96) = (   0.5000001  -0.0000000   0.9238814  )
        97           Ge  tau(  97) = (   0.8750000   0.0721688   0.3625399  )
        98           Ge  tau(  98) = (   0.6250000   0.2165064   0.3115088  )
        99           Ge  tau(  99) = (   0.7500001   0.1443376   0.5666641  )
       100           Ge  tau( 100) = (   0.8750000   0.0721688   0.5156330  )
       101           Ge  tau( 101) = (   0.6250001   0.2165063   0.7707882  )
       102           Ge  tau( 102) = (   0.7500001   0.1443375   0.7197572  )
       103           Ge  tau( 103) = (   0.8750001   0.0721687   0.9749124  )
       104           Ge  tau( 104) = (   0.6250001   0.2165063   0.9238814  )
       105           Ge  tau( 105) = (   0.7500001   0.2886751   0.3625399  )
       106           Ge  tau( 106) = (   0.5000001   0.4330127   0.3115088  )
       107           Ge  tau( 107) = (   0.6250001   0.3608439   0.5666641  )
       108           Ge  tau( 108) = (   0.7500001   0.2886751   0.5156330  )
       109           Ge  tau( 109) = (   0.5000001   0.4330127   0.7707882  )
       110           Ge  tau( 110) = (   0.6250001   0.3608439   0.7197572  )
       111           Ge  tau( 111) = (   0.7500001   0.2886751   0.9749124  )
       112           Ge  tau( 112) = (   0.5000001   0.4330127   0.9238814  )
       113           Ge  tau( 113) = (   0.6250001   0.5051815   0.3625399  )
       114           Ge  tau( 114) = (   0.3750001   0.6495191   0.3115088  )
       115           Ge  tau( 115) = (   0.5000001   0.5773503   0.5666641  )
       116           Ge  tau( 116) = (   0.6250001   0.5051815   0.5156330  )
       117           Ge  tau( 117) = (   0.3750002   0.6495190   0.7707882  )
       118           Ge  tau( 118) = (   0.5000001   0.5773503   0.7197572  )
       119           Ge  tau( 119) = (   0.6250002   0.5051815   0.9749124  )
       120           Ge  tau( 120) = (   0.3750002   0.6495190   0.9238814  )
       121           Ge  tau( 121) = (   0.5000001   0.7216878   0.3625399  )
       122           Ge  tau( 122) = (   0.7500000  -0.0000000   0.3115088  )
       123           Ge  tau( 123) = (   0.3750002   0.7938566   0.5666641  )
       124           Ge  tau( 124) = (   0.5000001   0.7216878   0.5156330  )
       125           Ge  tau( 125) = (   0.7500001  -0.0000000   0.7707882  )
       126           Ge  tau( 126) = (   0.3750002   0.7938566   0.7197572  )
       127           Ge  tau( 127) = (   0.5000002   0.7216878   0.9749124  )
       128           Ge  tau( 128) = (   0.7500001  -0.0000000   0.9238814  )

     number of k points=     1  Gaussian smearing, width (Ry)=  0.0100
                       cart. coord. in units 2pi/alat
        k(    1) = (   0.0000000   0.0000000   0.0000000), wk =   2.0000000

     Dense  grid:   975736 G-vectors     FFT dimensions: ( 150, 150, 200)

     Estimated max dynamical RAM per process >     290.92 MB

     Estimated total dynamical RAM >      15.91 GB

     Initial potential from superposition of free atoms

     starting charge 1791.89467, renormalised to 1792.00000

     negative rho (up, down):  5.846E-05 0.000E+00
     Starting wfcs are 1152 randomized atomic wfcs

     total cpu time spent up to now is        5.7 secs

     Self-consistent Calculation

     iteration #  1     ecut=    60.00 Ry     beta= 0.40
     Davidson diagonalization with overlap
     ethr =  1.00E-02,  avg # of iterations =  3.0

     Threshold (ethr) on eigenvalues was too large:
     Diagonalizing with lowered threshold

     Davidson diagonalization with overlap
     ethr =  1.44E-04,  avg # of iterations = 15.0

     negative rho (up, down):  1.671E-05 0.000E+00

     total cpu time spent up to now is       49.3 secs

     total energy              =  -22858.87036427 Ry
     estimated scf accuracy    <       2.90892882 Ry

     iteration #  2     ecut=    60.00 Ry     beta= 0.40
     Davidson diagonalization with overlap
     ethr =  1.62E-04,  avg # of iterations = 13.0

     negative rho (up, down):  8.606E-06 0.000E+00

     total cpu time spent up to now is       68.8 secs

     total energy              =  -22857.99499034 Ry
     estimated scf accuracy    <       9.72833987 Ry

     iteration #  3     ecut=    60.00 Ry     beta= 0.40
     Davidson diagonalization with overlap
     ethr =  1.62E-04,  avg # of iterations = 16.0

     total cpu time spent up to now is       89.1 secs

     total energy              =  -22858.97501701 Ry
     estimated scf accuracy    <       2.44475873 Ry

     iteration #  4     ecut=    60.00 Ry     beta= 0.40
     Davidson diagonalization with overlap
     ethr =  1.36E-04,  avg # of iterations =  3.0

     total cpu time spent up to now is      103.1 secs

     total energy              =  -22859.12113212 Ry
     estimated scf accuracy    <       0.15112812 Ry

     iteration #  5     ecut=    60.00 Ry     beta= 0.40
     Davidson diagonalization with overlap
     ethr =  8.43E-06,  avg # of iterations = 15.0

     total cpu time spent up to now is      125.0 secs

     total energy              =  -22859.04674712 Ry
     estimated scf accuracy    <       6.61427814 Ry

     iteration #  6     ecut=    60.00 Ry     beta= 0.40
     Davidson diagonalization with overlap
     ethr =  8.43E-06,  avg # of iterations =  9.0

     total cpu time spent up to now is      142.0 secs

     total energy              =  -22859.15061090 Ry
     estimated scf accuracy    <       0.03192524 Ry

     iteration #  7     ecut=    60.00 Ry     beta= 0.40
     Davidson diagonalization with overlap
     ethr =  1.78E-06,  avg # of iterations =  7.0

     total cpu time spent up to now is      157.0 secs

     total energy              =  -22859.15007476 Ry
     estimated scf accuracy    <       0.00942096 Ry

     iteration #  8     ecut=    60.00 Ry     beta= 0.40
     Davidson diagonalization with overlap
     ethr =  5.26E-07,  avg # of iterations =  2.0

     total cpu time spent up to now is      171.1 secs

     total energy              =  -22859.14982095 Ry
     estimated scf accuracy    <       0.04191070 Ry

     iteration #  9     ecut=    60.00 Ry     beta= 0.40
     Davidson diagonalization with overlap
     ethr =  5.26E-07,  avg # of iterations =  2.0

     total cpu time spent up to now is      184.6 secs

     total energy              =  -22859.15155599 Ry
     estimated scf accuracy    <       0.00487625 Ry

     iteration # 10     ecut=    60.00 Ry     beta= 0.40
     Davidson diagonalization with overlap
     ethr =  2.72E-07,  avg # of iterations =  2.0

     total cpu time spent up to now is      198.1 secs

     total energy              =  -22859.15181800 Ry
     estimated scf accuracy    <       0.00083472 Ry

     iteration # 11     ecut=    60.00 Ry     beta= 0.40
     Davidson diagonalization with overlap
     ethr =  4.66E-08,  avg # of iterations =  2.0

     total cpu time spent up to now is      211.6 secs

     total energy              =  -22859.15182314 Ry
     estimated scf accuracy    <       0.00028292 Ry

     iteration # 12     ecut=    60.00 Ry     beta= 0.40
     Davidson diagonalization with overlap
     ethr =  1.58E-08,  avg # of iterations =  2.0

     total cpu time spent up to now is      225.1 secs

     total energy              =  -22859.15183983 Ry
     estimated scf accuracy    <       0.00021326 Ry

     iteration # 13     ecut=    60.00 Ry     beta= 0.40
     Davidson diagonalization with overlap
     ethr =  1.19E-08,  avg # of iterations =  1.0

     total cpu time spent up to now is      237.0 secs

     total energy              =  -22859.15185163 Ry
     estimated scf accuracy    <       0.00003722 Ry

     iteration # 14     ecut=    60.00 Ry     beta= 0.40
     Davidson diagonalization with overlap
     ethr =  2.08E-09,  avg # of iterations =  2.0

     total cpu time spent up to now is      250.8 secs

     total energy              =  -22859.15185432 Ry
     estimated scf accuracy    <       0.00001190 Ry

     iteration # 15     ecut=    60.00 Ry     beta= 0.40
     Davidson diagonalization with overlap
     ethr =  6.64E-10,  avg # of iterations =  2.0

     total cpu time spent up to now is      264.6 secs

     total energy              =  -22859.15185427 Ry
     estimated scf accuracy    <       0.00001723 Ry

     iteration # 16     ecut=    60.00 Ry     beta= 0.40
     Davidson diagonalization with overlap
     ethr =  6.64E-10,  avg # of iterations =  2.0

     total cpu time spent up to now is      278.2 secs

     total energy              =  -22859.15185492 Ry
     estimated scf accuracy    <       0.00007166 Ry

     iteration # 17     ecut=    60.00 Ry     beta= 0.40
     Davidson diagonalization with overlap
     ethr =  6.64E-10,  avg # of iterations =  1.0

     total cpu time spent up to now is      290.1 secs

     total energy              =  -22859.15185619 Ry
     estimated scf accuracy    <       0.00000401 Ry

     iteration # 18     ecut=    60.00 Ry     beta= 0.40
     Davidson diagonalization with overlap
     ethr =  2.24E-10,  avg # of iterations =  2.0

     total cpu time spent up to now is      303.6 secs

     End of self-consistent calculation

          k = 0.0000 0.0000 0.0000 (121873 PWs)   bands (ev):

   -20.6567 -20.6567 -20.6566 -20.6566 -20.6566 -20.6566 -20.6566 -20.6565
   -20.6565 -20.6527 -20.6527 -20.6527 -20.6527 -20.6527 -20.6527 -20.6476
   -20.6476 -20.6476 -20.6476 -20.6476 -20.6476 -20.6443 -20.6443 -20.6443
   -20.6443 -20.6443 -20.6443 -20.6362 -20.6362 -20.6362 -20.6355 -20.6355
   -20.6355 -20.6355 -20.6355 -20.6355 -20.6340 -20.6340 -20.6340 -20.6337
   -20.6337 -20.6337 -20.6321 -20.6321 -20.6289 -20.6289 -20.6289 -20.6289
   -20.6289 -20.6289 -20.6267 -20.6267 -20.6267 -20.6266 -20.6266 -20.6266
   -20.6258 -20.6257 -20.6257 -20.6257 -20.6257 -20.6257 -20.6222 -20.6222
   -20.6222 -20.6222 -20.6222 -20.6222 -20.6211 -20.6211 -20.6211 -20.6211
   -20.6211 -20.6211 -20.6195 -20.6194 -20.6194 -20.6176 -20.6176 -20.6137
   -20.5838 -20.5787 -20.5787 -20.5787 -20.5787 -20.5786 -20.5786 -20.5779
   -20.5703 -20.5703 -20.5703 -20.5641 -20.5641 -20.5640 -20.5640 -20.5639
   -20.5639 -20.5639 -20.5639 -20.5535 -20.5535 -20.5535 -20.5535 -20.5535
   -20.5535 -20.5466 -20.5466 -20.5466 -20.5445 -20.5445 -20.5445 -20.5445
   -20.5445 -20.5445 -20.5432 -20.5432 -20.5358 -20.5358 -20.5358 -20.5358
   -20.5358 -20.5358 -20.5268 -20.5268 -20.5268 -20.5226 -20.5226 -20.5226
   -20.5225 -20.5225 -20.5225 -20.5225 -20.5225 -20.5224 -20.5172 -20.5172
   -20.5172 -20.5172 -20.5172 -20.5172 -20.5171 -20.5171 -20.5171 -20.5171
   -20.5170 -20.5170 -20.5042 -20.5042 -20.5042 -20.5042 -20.5042 -20.5042
   -20.5003 -20.5003 -20.5003 -20.5003 -20.5003 -20.5003 -20.4996 -20.4996
   -20.4996 -20.4911 -20.4911 -20.4911 -20.4910 -20.4910 -20.4910 -20.4781
   -20.4781 -20.4781 -20.4781 -20.4781 -20.4781 -20.4775 -20.4775 -20.4775
   -20.4775 -20.4774 -20.4774 -20.4764 -20.4764 -20.4764 -20.4681 -20.4681
   -20.4681 -20.4629 -20.4629 -20.4629 -20.4629 -20.4629 -20.4629 -20.4591
   -20.4591 -20.4590 -20.4525 -20.4525 -20.4525 -20.4525 -20.4525 -20.4525
   -20.4375 -20.4375 -20.4375 -20.4375 -20.4375 -20.4375 -20.4340 -20.4340
   -20.4340 -20.4340 -20.4339 -20.4339 -20.4241 -20.4241 -20.4241 -20.4241
   -20.4241 -20.4241 -20.4203 -20.4203 -20.4203 -20.4189 -20.4189 -20.4189
   -20.4186 -20.4186 -20.4186 -20.4186 -20.4185 -20.4185 -20.4166 -20.4166
   -20.4165 -20.4165 -20.4165 -20.4165 -20.4154 -20.4154 -20.4154 -20.4154
   -20.4154 -20.4154 -20.4136 -20.4136 -20.4131 -20.4131 -20.4131 -20.4131
   -20.4131 -20.4131 -20.4088 -20.4088 -20.4073 -20.4073 -20.4073 -20.4073
   -20.4073 -20.4073 -20.4069 -20.4069 -20.4069 -20.4065 -20.4065 -20.4065
   -20.4065 -20.4065 -20.4065 -20.4050 -20.4050 -20.4050 -20.4028 -20.4028
   -20.4027 -20.4027 -20.4027 -20.4027 -20.3983 -20.3983 -20.3983 -20.3967
   -20.3966 -20.3966 -20.3966 -20.3966 -20.3966 -20.3893 -20.3893 -20.3890
   -20.3890 -20.3890 -20.3890 -20.3890 -20.3890 -20.3877 -20.3877 -20.3877
   -20.3877 -20.3877 -20.3877 -20.3828 -20.3828 -20.3828 -20.3828 -20.3828
   -20.3828 -20.3823 -20.3823 -20.3823 -20.3794 -20.3724 -20.3724 -20.3722
   -20.3722 -20.3722 -20.3715 -20.3715 -20.3715 -20.3706 -20.3706 -20.3706
   -20.3706 -20.3706 -20.3706 -20.3674 -20.3674 -20.3674 -20.3674 -20.3674
   -20.3673 -20.3563 -20.3563 -20.3518 -20.3518 -20.3518 -20.3518 -20.3518
   -20.3518 -20.3404 -20.3404 -20.3404 -20.3365 -20.3365 -20.3335 -20.3335
   -20.3335 -20.3335 -20.3335 -20.3335 -20.3308 -20.3308 -20.3308 -20.3308
   -20.3308 -20.3308 -20.3288 -20.3287 -20.3287 -20.3287 -20.3287 -20.3287
   -20.3249 -20.3249 -20.3249 -20.3248 -20.3248 -20.3248 -20.3246 -20.3246
   -20.3246 -20.3243 -20.3243 -20.3243 -20.3243 -20.3243 -20.3243 -20.3230
   -20.3230 -20.3219 -20.3219 -20.3219 -20.3219 -20.3218 -20.3218 -20.3216
   -20.3216 -20.3216 -20.3216 -20.3216 -20.3216 -20.3202 -20.3202 -20.3202
   -20.3196 -20.3196 -20.3188 -20.3188 -20.3188 -20.3168 -20.3167 -20.3167
   -20.3167 -20.3167 -20.3167 -20.3161 -20.3161 -20.3161 -20.3087 -20.3087
   -20.3087 -20.3086 -20.3086 -20.3086 -20.3066 -20.3066 -20.3066 -20.3066
   -20.3066 -20.3066 -20.3066 -20.3066 -20.3066 -20.3056 -20.3056 -20.3056
   -20.3046 -20.3046 -20.3046 -20.3046 -20.3046 -20.3046 -20.3011 -20.3011
   -20.3010 -20.3010 -20.3010 -20.3010 -20.2940 -20.2916 -20.2916 -20.2916
   -20.2916 -20.2916 -20.2916 -20.2915 -20.2915 -20.2915 -20.2899 -20.2899
   -20.2898 -20.2898 -20.2898 -20.2898 -20.2898 -20.2898 -20.2898 -20.2898
   -20.2898 -20.2898 -20.2892 -20.2891 -20.2891 -20.2891 -20.2859 -20.2859
   -20.2859 -20.2858 -20.2858 -20.2858 -20.2849 -20.2849 -20.2849 -20.2849
   -20.2848 -20.2848 -20.2843 -20.2843 -20.2843 -20.2843 -20.2843 -20.2843
   -20.2104 -20.2103 -20.1962 -20.1962 -20.1961 -20.1961 -20.1961 -20.1961
   -20.1944 -20.1944 -20.1944 -20.1943 -20.1943 -20.1943 -20.1866 -20.1866
   -20.1865 -20.1865 -20.1865 -20.1865 -20.1860 -20.1860 -20.1859 -20.1859
   -20.1859 -20.1859 -20.1781 -20.1781 -20.1781 -20.1771 -20.1771 -20.1771
   -20.1721 -20.1721 -20.1721 -20.1721 -20.1721 -20.1721 -20.1712 -20.1712
   -20.1712 -20.1712 -20.1712 -20.1711 -20.1705 -20.1705 -20.1705 -20.1705
   -20.1705 -20.1705 -20.1606 -20.1606 -20.1606 -20.1606 -20.1606 -20.1606
   -20.1599 -20.1599 -20.1599 -20.1599 -20.1599 -20.1599 -20.1587 -20.1587
   -20.1587 -20.1587 -20.1586 -20.1586 -20.1584 -20.1584 -20.1584 -20.1584
   -20.1584 -20.1584 -20.1579 -20.1579 -20.1579 -20.1579 -20.1579 -20.1579
   -20.1573 -20.1573 -20.1573 -20.1570 -20.1570 -20.1570 -20.1548 -20.1548
   -20.1548 -20.1548 -20.1548 -20.1548 -20.1346 -20.1346 -20.1341 -20.1341
   -20.1296 -20.1296 -20.1296 -20.1296 -20.1296 -20.1296 -20.1286 -20.1286
   -20.1286 -20.1285 -20.1285 -20.1285 -20.1183 -20.1183 -20.1183 -20.1164
   -20.1164 -20.1164 -20.1006 -20.1006 -20.1003 -20.1003 -20.0973 -20.0973
   -20.0973 -20.0973 -20.0973 -20.0973 -20.0945 -20.0945 -20.0945 -20.0944
   -20.0944 -20.0944 -20.0787 -20.0787 -20.0787 -20.0787 -20.0787 -20.0787
   -20.0775 -20.0775 -20.0775 -20.0775 -20.0775 -20.0774 -20.0720 -20.0720
   -20.0720 -20.0673 -20.0673 -20.0673 -20.0548 -20.0548 -20.0547 -20.0547
   -20.0547 -20.0547 -20.0540 -20.0540 -20.0539 -20.0539 -20.0539 -20.0539
    -8.1925  -7.6763  -7.5343  -7.5343  -7.5343  -7.5343  -7.5342  -7.5342
    -7.0237  -7.0237  -7.0236  -7.0236  -7.0236  -7.0236  -6.9936  -6.4573
    -6.3449  -6.3449  -6.3448  -6.3448  -6.3448  -6.3448  -6.3389  -6.3389
    -6.3388  -6.3388  -6.3388  -6.3388  -6.1868  -6.1868  -6.1868  -5.8910
    -5.8910  -5.8910  -5.8910  -5.8910  -5.8910  -5.8344  -5.8344  -5.8344
    -5.7857  -5.7857  -5.7856  -5.7856  -5.7856  -5.7856  -5.3061  -5.3061
    -5.3061  -5.2705  -5.2705  -5.2705  -5.2705  -5.2705  -5.2705  -4.6396
    -4.6396  -4.6396  -4.5860  -4.5860  -4.5860  -4.5860  -4.5860  -4.5860
    -3.8677  -3.8677  -3.8677  -3.8676  -3.8676  -3.8676  -3.8559  -3.8559
    -3.8559  -3.1799  -3.1799  -3.1799  -3.1688  -3.1688  -3.1688  -3.1688
    -3.1688  -3.1688  -3.0907  -3.0907  -3.0907  -2.9314  -2.9314  -2.9314
    -2.7771  -2.7771  -2.7771  -2.7771  -2.7771  -2.7770  -2.5790  -2.5790
    -2.5790  -2.5790  -2.5789  -2.5789  -2.5302  -2.2458  -2.2458  -2.2458
    -2.2457  -2.2457  -2.2457  -1.6400  -1.6400  -1.6400  -1.6399  -1.6399
    -1.6399  -0.9865  -0.6293  -0.6293  -0.6293  -0.6292  -0.6292  -0.6292
    -0.0004  -0.0004  -0.0004  -0.0004  -0.0004  -0.0004   0.4938   0.4938
     0.4938   0.4938   0.4938   0.4938   0.5218   0.5218   0.5218   0.5218
     0.5218   0.5218   0.5591   0.5591   0.5591   0.5591   0.5591   0.5591
     0.7952   0.7952   0.7952   0.7952   0.7952   0.7952   0.9560   0.9977
     0.9977   0.9977   1.0078   1.0078   1.0078   1.0679   1.0679   1.0679
     1.0679   1.0680   1.0680   1.1700   1.1700   1.1700   1.1700   1.1700
     1.1700   1.2969   1.2969   1.2969   1.2969   1.2969   1.2969   1.4659
     1.4659   1.4659   1.7697   1.7697   1.7697   1.7697   1.7697   1.7697
     1.7914   1.7914   1.7914   1.9286   1.9286   1.9286   2.0910   2.0910
     2.0910   2.0910   2.0910   2.0910   2.3299   2.3300   2.3300   2.3300
     2.3300   2.3300   2.3985   2.3985   2.3985   2.3985   2.3985   2.3985
     2.4826   2.4826   2.4826   2.5445   2.5445   2.5445   2.5445   2.5445
     2.5445   2.8528   2.8529   2.8529   3.0850   3.0850   3.0899   3.0899
     3.0899   3.0899   3.0899   3.0899   3.1104   3.3534   3.3534   3.3534
     3.4517   3.4517   3.4517   3.4517   3.4517   3.4517   3.4773   3.4773
     3.7564   3.7564   3.7564   3.7564   3.7564   3.7564   3.9120   3.9120
     3.9121   3.9121   3.9121   3.9121   3.9648   3.9648   4.1537   4.1537
     4.1537   4.1701   4.1701   4.1701   4.1701   4.1702   4.1702   4.2783
     4.2783   4.4676   4.4677   4.4677   4.4677   4.4677   4.4677   4.5758
     4.9283   5.0807   5.2800   5.2800   5.2800   5.2933   5.4534   5.5489
     5.5489   5.5489   5.6923   5.6923   5.6923   5.6923   5.6923   5.6923
     5.7088   5.7088   5.7088   5.9957   5.9957   5.9957   5.9957   5.9957
     5.9957   6.1083   6.1083   6.1083   6.2468   6.2468   6.2468   6.2468
     6.2468   6.2468   6.3321   6.3321   6.3321   6.3921   6.3921   6.3921
     6.3921   6.3921   6.3921   6.3995   6.3995   6.3995   6.3995   6.3995
     6.3995   6.5679   6.5679   6.5679   6.5679   6.5679   6.5679   7.2494
     7.2494   7.3492   7.3492   7.3492   7.3492   7.3492   7.3492   7.5270
     7.5270   7.5271   7.5596   7.5597   7.5597   7.5597   7.5597   7.5597
     7.8678   7.8678   7.9478   7.9478   7.9478   7.9478   7.9478   7.9478
     8.1445   8.1650   8.1650   8.1650   8.1913   8.1913   8.1936   8.2270
     8.2270   8.3201   8.3201   8.3201   8.3201   8.3201   8.3201   8.3242
     8.3242   8.3242   8.3242   8.3242   8.3242   8.4176   8.4176   8.4176
     8.4176   8.4176   8.4176   8.6255   8.6255   8.6255   8.7061   8.7062
     8.7062   8.7062   8.7062   8.7062   8.7213   8.7213   8.7213   8.7213
     8.7213   8.7213   8.7823   8.7823   8.7823   8.7823   8.7823   8.7823
     9.0902   9.0902   9.0902   9.0902   9.0902   9.0902   9.2106   9.2106
     9.2107   9.2107   9.2107   9.2109   9.2989   9.2989   9.2989   9.2989
     9.2989   9.2989   9.3212   9.3212   9.3212   9.3212   9.3212   9.3213
     9.3462   9.3462   9.3462   9.3462   9.3462   9.3462   9.4123   9.4123
     9.4123   9.4124   9.4124

     the Fermi energy is     4.0996 ev

!    total energy              =  -22859.15185604 Ry
     estimated scf accuracy    <       0.00000058 Ry
     smearing contrib. (-TS)   =      -0.05171071 Ry
     internal energy E=F+TS    =  -22859.10014533 Ry

     The total energy is F=E-TS. E is the sum of the following terms:
     one-electron contribution =  -58857.68072534 Ry
     hartree contribution      =   30312.63064682 Ry
     xc contribution           =   -5581.68676383 Ry
     ewald contribution        =   11267.63669702 Ry

     convergence has been achieved in  18 iterations

     Forces acting on atoms (cartesian axes, Ry/au):

     atom    1 type  1   force =     0.00000597    0.00000345   -0.00727902
     atom    2 type  1   force =    -0.00000454    0.00000078   -0.00821073
     atom    3 type  1   force =     0.00000000   -0.00000087    0.00477322
     atom    4 type  1   force =     0.00000103    0.00000059    0.00201312
     atom    5 type  1   force =     0.00000454    0.00000058   -0.00202289
     atom    6 type  1   force =     0.00000000    0.00000100   -0.00478897
     atom    7 type  1   force =     0.00000131    0.00000076    0.00822907
     atom    8 type  1   force =    -0.00000302   -0.00000498    0.00728724
     atom    9 type  1   force =     0.00000000   -0.00000497   -0.00727868
     atom   10 type  1   force =    -0.00000085   -0.00000049   -0.00821513
     atom   11 type  1   force =    -0.00000246    0.00000096    0.00477339
     atom   12 type  1   force =     0.00000000    0.00000027    0.00201253
     atom   13 type  1   force =     0.00000459    0.00000265   -0.00202193
     atom   14 type  1   force =     0.00000437   -0.00000038   -0.00478758
     atom   15 type  1   force =     0.00000000    0.00000353    0.00821971
     atom   16 type  1   force =     0.00000013    0.00000008    0.00728899
     atom   17 type  1   force =    -0.00000454   -0.00000262   -0.00728077
     atom   18 type  1   force =    -0.00000159   -0.00000432   -0.00821073
     atom   19 type  1   force =    -0.00000040   -0.00000261    0.00477339
     atom   20 type  1   force =    -0.00000396   -0.00000229    0.00201595
     atom   21 type  1   force =     0.00000277    0.00000364   -0.00202289
     atom   22 type  1   force =     0.00000185    0.00000397   -0.00478758
     atom   23 type  1   force =     0.00000820    0.00000474    0.00821544
     atom   24 type  1   force =    -0.00000582   -0.00000012    0.00728724
     atom   25 type  1   force =    -0.00000430    0.00000248   -0.00727868
     atom   26 type  1   force =     0.00000000    0.00000000   -0.00820670
     atom   27 type  1   force =    -0.00000075    0.00000043    0.00477322
     atom   28 type  1   force =     0.00000023   -0.00000013    0.00201253
     atom   29 type  1   force =     0.00000000    0.00000000   -0.00202059
     atom   30 type  1   force =     0.00000087   -0.00000050   -0.00478897
     atom   31 type  1   force =     0.00000306   -0.00000176    0.00821971
     atom   32 type  1   force =     0.00000000    0.00000000    0.00728329
     atom   33 type  1   force =    -0.00000348    0.00000032   -0.00727805
     atom   34 type  1   force =     0.00000454    0.00000078   -0.00821073
     atom   35 type  1   force =    -0.00000104   -0.00000060    0.00477421
     atom   36 type  1   force =     0.00000093   -0.00000567    0.00200934
     atom   37 type  1   force =    -0.00000454    0.00000058   -0.00202289
     atom   38 type  1   force =    -0.00000265   -0.00000153   -0.00479255
     atom   39 type  1   force =    -0.00000067    0.00000121    0.00822481
     atom   40 type  1   force =     0.00000302   -0.00000498    0.00728724
     atom   41 type  1   force =    -0.00000146   -0.00000318   -0.00727805
     atom   42 type  1   force =     0.00000000   -0.00000240   -0.00820312
     atom   43 type  1   force =     0.00000246    0.00000096    0.00477339
     atom   44 type  1   force =    -0.00000444    0.00000364    0.00200934
     atom   45 type  1   force =     0.00000000    0.00000177   -0.00202056
     atom   46 type  1   force =    -0.00000437   -0.00000038   -0.00478758
     atom   47 type  1   force =     0.00000071   -0.00000119    0.00822481
     atom   48 type  1   force =     0.00000000    0.00000823    0.00729612
     atom   49 type  1   force =     0.00000454   -0.00000262   -0.00728077
     atom   50 type  1   force =    -0.00000208    0.00000120   -0.00820312
     atom   51 type  1   force =     0.00000000    0.00000000    0.00477890
     atom   52 type  1   force =     0.00000396   -0.00000229    0.00201595
     atom   53 type  1   force =     0.00000154   -0.00000089   -0.00202056
     atom   54 type  1   force =     0.00000000    0.00000000   -0.00478731
     atom   55 type  1   force =    -0.00000820    0.00000474    0.00821544
     atom   56 type  1   force =     0.00000713   -0.00000412    0.00729612
     atom   57 type  1   force =     0.00000000    0.00000524   -0.00728077
     atom   58 type  1   force =     0.00000295    0.00000354   -0.00821073
     atom   59 type  1   force =     0.00000206    0.00000165    0.00477339
     atom   60 type  1   force =     0.00000000    0.00000458    0.00201595
     atom   61 type  1   force =    -0.00000177   -0.00000422   -0.00202289
     atom   62 type  1   force =    -0.00000251   -0.00000359   -0.00478758
     atom   63 type  1   force =     0.00000000   -0.00000947    0.00821544
     atom   64 type  1   force =    -0.00000280    0.00000510    0.00728724
     atom   65 type  1   force =     0.00000348    0.00000032   -0.00727805
     atom   66 type  1   force =    -0.00000577   -0.00000333   -0.00821408
     atom   67 type  1   force =     0.00000000   -0.00000631    0.00477306
     atom   68 type  1   force =    -0.00000093   -0.00000567    0.00200934
     atom   69 type  1   force =     0.00000204    0.00000118   -0.00201897
     atom   70 type  1   force =     0.00000000    0.00000140   -0.00478608
     atom   71 type  1   force =     0.00000067    0.00000121    0.00822481
     atom   72 type  1   force =     0.00000039    0.00000023    0.00729093
     atom   73 type  1   force =     0.00000000   -0.00000000   -0.00726823
     atom   74 type  1   force =     0.00000085   -0.00000049   -0.00821513
     atom   75 type  1   force =    -0.00000547    0.00000316    0.00477306
     atom   76 type  1   force =     0.00000000   -0.00000000    0.00201405
     atom   77 type  1   force =    -0.00000459    0.00000265   -0.00202193
     atom   78 type  1   force =     0.00000121   -0.00000070   -0.00478608
     atom   79 type  1   force =     0.00000000   -0.00000000    0.00822588
     atom   80 type  1   force =    -0.00000013    0.00000008    0.00728899
     atom   81 type  1   force =     0.00000202    0.00000286   -0.00727805
     atom   82 type  1   force =     0.00000208    0.00000120   -0.00820312
     atom   83 type  1   force =     0.00000040   -0.00000261    0.00477339
     atom   84 type  1   force =    -0.00000537    0.00000203    0.00200934
     atom   85 type  1   force =    -0.00000154   -0.00000089   -0.00202056
     atom   86 type  1   force =    -0.00000185    0.00000397   -0.00478758
     atom   87 type  1   force =     0.00000138   -0.00000002    0.00822481
     atom   88 type  1   force =    -0.00000713   -0.00000412    0.00729612
     atom   89 type  1   force =     0.00000430    0.00000248   -0.00727868
     atom   90 type  1   force =     0.00000000    0.00000098   -0.00821513
     atom   91 type  1   force =    -0.00000206    0.00000165    0.00477339
     atom   92 type  1   force =    -0.00000023   -0.00000013    0.00201253
     atom   93 type  1   force =     0.00000000   -0.00000530   -0.00202193
     atom   94 type  1   force =     0.00000251   -0.00000359   -0.00478758
     atom   95 type  1   force =    -0.00000306   -0.00000176    0.00821971
     atom   96 type  1   force =    -0.00000000   -0.00000015    0.00728899
     atom   97 type  1   force =    -0.00000597    0.00000345   -0.00727902
     atom   98 type  1   force =     0.00000577   -0.00000333   -0.00821408
     atom   99 type  1   force =     0.00000104   -0.00000060    0.00477421
     atom  100 type  1   force =    -0.00000103    0.00000059    0.00201312
     atom  101 type  1   force =    -0.00000204    0.00000118   -0.00201897
     atom  102 type  1   force =     0.00000265   -0.00000153   -0.00479255
     atom  103 type  1   force =    -0.00000131    0.00000076    0.00822907
     atom  104 type  1   force =    -0.00000039    0.00000023    0.00729093
     atom  105 type  1   force =     0.00000146   -0.00000318   -0.00727805
     atom  106 type  1   force =     0.00000000    0.00000666   -0.00821408
     atom  107 type  1   force =     0.00000547    0.00000316    0.00477306
     atom  108 type  1   force =     0.00000444    0.00000364    0.00200934
     atom  109 type  1   force =     0.00000000   -0.00000236   -0.00201897
     atom  110 type  1   force =    -0.00000121   -0.00000070   -0.00478608
     atom  111 type  1   force =    -0.00000071   -0.00000119    0.00822481
     atom  112 type  1   force =     0.00000000   -0.00000046    0.00729093
     atom  113 type  1   force =    -0.00000202    0.00000286   -0.00727805
     atom  114 type  1   force =     0.00000159   -0.00000432   -0.00821073
     atom  115 type  1   force =    -0.00000000    0.00000120    0.00477421
     atom  116 type  1   force =     0.00000537    0.00000203    0.00200934
     atom  117 type  1   force =    -0.00000277    0.00000364   -0.00202289
     atom  118 type  1   force =     0.00000000    0.00000306   -0.00479255
     atom  119 type  1   force =    -0.00000138   -0.00000002    0.00822481
     atom  120 type  1   force =     0.00000582   -0.00000013    0.00728724
     atom  121 type  1   force =    -0.00000000   -0.00000689   -0.00727902
     atom  122 type  1   force =    -0.00000295    0.00000354   -0.00821073
     atom  123 type  1   force =     0.00000075    0.00000043    0.00477322
     atom  124 type  1   force =     0.00000000   -0.00000119    0.00201312
     atom  125 type  1   force =     0.00000177   -0.00000422   -0.00202289
     atom  126 type  1   force =    -0.00000087   -0.00000050   -0.00478897
     atom  127 type  1   force =     0.00000000   -0.00000151    0.00822907
     atom  128 type  1   force =     0.00000280    0.00000510    0.00728724

     Total force =     0.068702     Total SCF correction =     0.004446

     BFGS Geometry Optimization
     Energy error            =      0.0E+00 Ry
     Gradient error          =      8.2E-03 Ry/Bohr

     number of scf cycles    =   1
     number of bfgs steps    =   0

     energy             new  =  -22859.1518560374 Ry

     new trust radius        =       0.0082290663 bohr
     new conv_thr            =       0.0000010000 Ry


ATOMIC_POSITIONS (angstrom)
Ge            2.0063673489        1.1583764105        5.8152428831
Ge           -2.0063654849        3.4751244359        4.9956550692
Ge            0.0000009705        2.3167486499        9.0979997407
Ge            2.0063650118        1.1583747709        8.2774443867
Ge           -2.0063598483        3.4751239396       12.3707824876
Ge            0.0000012477        2.3167495093       11.5502239666
Ge            2.0063659924        1.1583744666       15.6525866773
Ge           -2.0063635700        3.4751208682       14.8329935139
Ge            0.0000009705        4.6334960473        5.8152430620
Ge           -4.0127267516        6.9502478508        4.9956527407
Ge           -2.0063635527        5.7918737040        9.0979998321
Ge            0.0000012477        4.6334986852        8.2774440746
Ge           -4.0127230399        6.9502491232       12.3707829950
Ge           -2.0063596626        5.7918728648       11.5502247038
Ge            0.0000020796        4.6335000213       15.6525817272
Ge           -4.0127251238        6.9502476299       14.8329944383
Ge           -2.0063646511        8.1086213763        5.8152419544
Ge           -6.0190903668       10.4253699098        4.9956550692
Ge           -4.0127256835        9.2669959035        9.0979998321
Ge           -2.0063640711        8.1086214209        8.2774458841
Ge           -6.0190872245       10.4253737335       12.3707824876
Ge           -4.0127242138        9.2669992568       11.5502247038
Ge           -2.0063568012        8.1086247477       15.6525794658
Ge           -6.0190914939       10.4253716109       14.8329935139
Ge           -4.0127277466       11.5837481637        5.8152430620
Ge            0.0000001386       -0.0000000651        4.9956572022
Ge           -6.0190890900       12.7421216023        9.0979997407
Ge           -4.0127250721       11.5837466496        8.2774440746
Ge            0.0000009705       -0.0000004554       12.3707837048
Ge           -6.0190879558       12.7421209774       11.5502239666
Ge           -4.0127227452       11.5837453961       15.6525817272
Ge            0.0000012477       -0.0000005855       14.8329914229
Ge            6.0190898984        1.1583747575        5.8152433957
Ge            2.0063668713        3.4751244359        4.9956550692
Ge            4.0127279700        2.3167487917        9.0980002659
Ge            6.0190925107        1.1583714580        8.2774423863
Ge            2.0063628984        3.4751239396       12.3707824876
Ge            4.0127273955        2.3167481698       11.5502220740
Ge            6.0190924948        1.1583747063       15.6525844230
Ge            2.0063671746        3.4751208682       14.8329935139
Ge            4.0127277467        4.6334969935        5.8152433957
Ge            0.0000012477        6.9502468405        4.9956590937
Ge            2.0063666028        5.7918737040        9.0979998321
Ge            4.0127264467        4.6335004703        8.2774423863
Ge            0.0000020796        6.9502486578       12.3707837192
Ge            2.0063632672        5.7918728648       11.5502247038
Ge            4.0127300057        4.6334975264       15.6525844230
Ge            0.0000023569        6.9502519447       14.8329982124
Ge            2.0063677012        8.1086213763        5.8152419544
Ge           -2.0063630723       10.4253728321        4.9956590937
Ge            0.0000020796        9.2669972848        9.0980027497
Ge            2.0063676757        8.1086214209        8.2774458841
Ge           -2.0063603286       10.4253713380       12.3707837192
Ge            0.0000023569        9.2669971547       11.5502248473
Ge            2.0063620695        8.1086247477       15.6525794658
Ge           -2.0063570922       10.4253694994       14.8329982124
Ge            0.0000020796       11.5837496222        5.8152419544
Ge            4.0127292487        0.0000018090        4.9956550692
Ge           -2.0063600511       12.7421222470        9.0979998321
Ge            0.0000023569       11.5837491425        8.2774458841
Ge            4.0127275863       -0.0000026892       12.3707824876
Ge           -2.0063621944       12.7421193425       11.5502247038
Ge            0.0000031887       11.5837413182       15.6525794658
Ge            4.0127273158        0.0000021145       14.8329935139
Ge           10.0318211356        1.1583747575        5.8152433957
Ge            6.0190889667        3.4751222601        4.9956532951
Ge            8.0254560716        2.3167457696        9.0979996565
Ge           10.0318190779        1.1583714580        8.2774423863
Ge            6.0190939316        3.4751242561       12.3707845595
Ge            8.0254563488        2.3167497202       11.5502254951
Ge           10.0318207575        1.1583747063       15.6525844230
Ge            6.0190933368        3.4751236225       14.8329954623
Ge            8.0254560716        4.6334986749        5.8152485930
Ge            4.0127292471        6.9502478508        4.9956527407
Ge            6.0190899582        5.7918748674        9.0979996565
Ge            8.0254563488        4.6334985448        8.2774448803
Ge            4.0127271990        6.9502491232       12.3707829950
Ge            6.0190937694        5.7918726970       11.5502254951
Ge            8.0254571807        4.6334981545       15.6525849888
Ge            4.0127298375        6.9502476299       14.8329944383
Ge            6.0190939199        8.1086242737        5.8152433957
Ge            2.0063666769       10.4253728321        4.9956590937
Ge            4.0127298426        9.2669959035        9.0979998321
Ge            6.0190902848        8.1086237061        8.2774423863
Ge            2.0063655969       10.4253713380       12.3707837192
Ge            4.0127289275        9.2669992568       11.5502247038
Ge            6.0190946917        8.1086222307       15.6525844230
Ge            2.0063629150       10.4253694994       14.8329982124
Ge            4.0127319057       11.5837481637        5.8152430620
Ge            8.0254552397        0.0000004532        4.9956527407
Ge            2.0063653194       12.7421222470        9.0979998321
Ge            4.0127297858       11.5837466496        8.2774440746
Ge            8.0254560716       -0.0000032626       12.3707829950
Ge            2.0063680172       12.7421193425       11.5502247038
Ge            4.0127291225       11.5837453961       15.6525817272
Ge            8.0254563488       -0.0000006662       14.8329944383
Ge           14.0445436851        1.1583764105        5.8152428831
Ge           10.0318226219        3.4751222601        4.9956532951
Ge           12.0381841731        2.3167487917        9.0980002659
Ge           14.0445465768        1.1583747709        8.2774443867
Ge           10.0318193207        3.4751242561       12.3707845595
Ge           12.0381853022        2.3167481698       11.5502220740
Ge           14.0445472598        1.1583744666       15.6525866773
Ge           10.0318204700        3.4751236225       14.8329954623
Ge           12.0381843964        4.6334969935        5.8152433957
Ge            8.0254563488        6.9502516344        4.9956532951
Ge           10.0318232941        5.7918748674        9.0979996565
Ge           12.0381862510        4.6335004703        8.2774423863
Ge            8.0254571807        6.9502464717       12.3707845595
Ge           10.0318200374        5.7918726970       11.5502254951
Ge           12.0381843556        4.6334975264       15.6525844230
Ge            8.0254574580        6.9502473485       14.8329954623
Ge           10.0318193324        8.1086242737        5.8152433957
Ge            6.0190939714       10.4253699098        4.9956550692
Ge            8.0254571807        9.2669979211        9.0980002659
Ge           10.0318235220        8.1086237061        8.2774423863
Ge            6.0190924928       10.4253737335       12.3707824876
Ge            8.0254574580        9.2669987745       11.5502220740
Ge           10.0318207788        8.1086222307       15.6525844230
Ge            6.0190973167       10.4253716109       14.8329935139
Ge            8.0254571807       11.5837432037        5.8152428831
Ge           12.0381812308        0.0000018090        4.9956550692
Ge            6.0190943583       12.7421216023        9.0979997407
Ge            8.0254574580       11.5837460925        8.2774443867
Ge           12.0381845568       -0.0000026892       12.3707824876
Ge            6.0190937786       12.7421209774       11.5502239666
Ge            8.0254582898       11.5837455304       15.6525866773
Ge           12.0381853819        0.0000021145       14.8329935139



     Writing output data file ./out/ge.save/
     NEW-OLD atomic charge density approx. for the potential

     total cpu time spent up to now is      308.7 secs

     Self-consistent Calculation

     iteration #  1     ecut=    60.00 Ry     beta= 0.40
     Davidson diagonalization with overlap
     ethr =  1.00E-06,  avg # of iterations =  4.0

     Threshold (ethr) on eigenvalues was too large:
     Diagonalizing with lowered threshold

     Davidson diagonalization with overlap
     ethr =  1.77E-08,  avg # of iterations =  4.0

     total cpu time spent up to now is      352.0 secs

     total energy              =  -22859.15607535 Ry
     estimated scf accuracy    <       0.00037122 Ry

     iteration #  2     ecut=    60.00 Ry     beta= 0.40
     Davidson diagonalization with overlap
     ethr =  2.07E-08,  avg # of iterations =  3.0

     total cpu time spent up to now is      366.6 secs

     total energy              =  -22859.15473994 Ry
     estimated scf accuracy    <       0.08018627 Ry

     iteration #  3     ecut=    60.00 Ry     beta= 0.40
     Davidson diagonalization with overlap
     ethr =  2.07E-08,  avg # of iterations =  2.0

     total cpu time spent up to now is      380.5 secs

     total energy              =  -22859.15590683 Ry
     estimated scf accuracy    <       0.01401342 Ry

     iteration #  4     ecut=    60.00 Ry     beta= 0.40
     Davidson diagonalization with overlap
     ethr =  2.07E-08,  avg # of iterations =  3.0

     total cpu time spent up to now is      394.6 secs

     total energy              =  -22859.15623616 Ry
     estimated scf accuracy    <       0.00014047 Ry

     iteration #  5     ecut=    60.00 Ry     beta= 0.40
     Davidson diagonalization with overlap
     ethr =  7.84E-09,  avg # of iterations =  2.0

     total cpu time spent up to now is      408.3 secs

     total energy              =  -22859.15624015 Ry
     estimated scf accuracy    <       0.00008482 Ry

     iteration #  6     ecut=    60.00 Ry     beta= 0.40
     Davidson diagonalization with overlap
     ethr =  4.73E-09,  avg # of iterations =  2.0

     total cpu time spent up to now is      421.9 secs

     total energy              =  -22859.15624867 Ry
     estimated scf accuracy    <       0.00002905 Ry

     iteration #  7     ecut=    60.00 Ry     beta= 0.40
     Davidson diagonalization with overlap
     ethr =  1.62E-09,  avg # of iterations =  2.0

     total cpu time spent up to now is      435.5 secs

     total energy              =  -22859.15624978 Ry
     estimated scf accuracy    <       0.00002176 Ry

     iteration #  8     ecut=    60.00 Ry     beta= 0.40
     Davidson diagonalization with overlap
     ethr =  1.21E-09,  avg # of iterations =  1.0

     total cpu time spent up to now is      447.4 secs

     total energy              =  -22859.15625109 Ry
     estimated scf accuracy    <       0.00001010 Ry

     iteration #  9     ecut=    60.00 Ry     beta= 0.40
     Davidson diagonalization with overlap
     ethr =  5.64E-10,  avg # of iterations =  2.0

     total cpu time spent up to now is      460.9 secs

     total energy              =  -22859.15625171 Ry
     estimated scf accuracy    <       0.00000268 Ry

     iteration # 10     ecut=    60.00 Ry     beta= 0.40
     Davidson diagonalization with overlap
     ethr =  1.50E-10,  avg # of iterations =  2.0

     total cpu time spent up to now is      474.6 secs

     total energy              =  -22859.15625178 Ry
     estimated scf accuracy    <       0.00000249 Ry

     iteration # 11     ecut=    60.00 Ry     beta= 0.40
     Davidson diagonalization with overlap
     ethr =  1.39E-10,  avg # of iterations =  2.0

     total cpu time spent up to now is      488.0 secs

     End of self-consistent calculation

          k = 0.0000 0.0000 0.0000 (121873 PWs)   bands (ev):

   -20.6582 -20.6582 -20.6582 -20.6581 -20.6581 -20.6581 -20.6581 -20.6581
   -20.6581 -20.6534 -20.6534 -20.6534 -20.6534 -20.6534 -20.6534 -20.6469
   -20.6469 -20.6469 -20.6469 -20.6469 -20.6469 -20.6434 -20.6434 -20.6434
   -20.6434 -20.6434 -20.6434 -20.6356 -20.6356 -20.6356 -20.6350 -20.6350
   -20.6350 -20.6350 -20.6350 -20.6350 -20.6327 -20.6327 -20.6327 -20.6320
   -20.6320 -20.6320 -20.6317 -20.6317 -20.6270 -20.6270 -20.6270 -20.6270
   -20.6270 -20.6270 -20.6257 -20.6257 -20.6257 -20.6257 -20.6257 -20.6257
   -20.6244 -20.6244 -20.6244 -20.6244 -20.6244 -20.6243 -20.6202 -20.6202
   -20.6202 -20.6202 -20.6202 -20.6202 -20.6198 -20.6198 -20.6198 -20.6198
   -20.6198 -20.6198 -20.6169 -20.6168 -20.6168 -20.6167 -20.6167 -20.6163
   -20.5805 -20.5762 -20.5762 -20.5762 -20.5762 -20.5762 -20.5762 -20.5748
   -20.5688 -20.5688 -20.5688 -20.5634 -20.5634 -20.5623 -20.5623 -20.5623
   -20.5623 -20.5623 -20.5623 -20.5527 -20.5527 -20.5527 -20.5527 -20.5527
   -20.5527 -20.5458 -20.5458 -20.5458 -20.5439 -20.5439 -20.5439 -20.5439
   -20.5439 -20.5439 -20.5422 -20.5422 -20.5346 -20.5346 -20.5346 -20.5346
   -20.5346 -20.5346 -20.5256 -20.5256 -20.5256 -20.5221 -20.5221 -20.5221
   -20.5218 -20.5217 -20.5217 -20.5217 -20.5217 -20.5217 -20.5161 -20.5161
   -20.5161 -20.5161 -20.5161 -20.5161 -20.5159 -20.5159 -20.5159 -20.5159
   -20.5159 -20.5159 -20.5033 -20.5033 -20.5033 -20.5033 -20.5033 -20.5033
   -20.4995 -20.4995 -20.4995 -20.4995 -20.4995 -20.4995 -20.4981 -20.4981
   -20.4981 -20.4897 -20.4897 -20.4897 -20.4897 -20.4897 -20.4897 -20.4777
   -20.4777 -20.4777 -20.4777 -20.4777 -20.4777 -20.4772 -20.4772 -20.4772
   -20.4772 -20.4772 -20.4772 -20.4761 -20.4761 -20.4761 -20.4673 -20.4673
   -20.4673 -20.4623 -20.4623 -20.4623 -20.4623 -20.4623 -20.4623 -20.4587
   -20.4587 -20.4587 -20.4521 -20.4521 -20.4521 -20.4521 -20.4521 -20.4521
   -20.4370 -20.4370 -20.4370 -20.4370 -20.4370 -20.4370 -20.4336 -20.4336
   -20.4336 -20.4336 -20.4336 -20.4336 -20.4233 -20.4233 -20.4233 -20.4233
   -20.4233 -20.4233 -20.4193 -20.4193 -20.4193 -20.4184 -20.4184 -20.4184
   -20.4174 -20.4174 -20.4174 -20.4174 -20.4174 -20.4174 -20.4155 -20.4155
   -20.4155 -20.4155 -20.4155 -20.4155 -20.4145 -20.4145 -20.4145 -20.4145
   -20.4145 -20.4145 -20.4127 -20.4127 -20.4120 -20.4120 -20.4120 -20.4120
   -20.4120 -20.4120 -20.4075 -20.4075 -20.4065 -20.4065 -20.4065 -20.4065
   -20.4064 -20.4064 -20.4060 -20.4060 -20.4060 -20.4060 -20.4060 -20.4060
   -20.4058 -20.4058 -20.4058 -20.4041 -20.4041 -20.4041 -20.4017 -20.4017
   -20.4017 -20.4017 -20.4017 -20.4017 -20.3975 -20.3975 -20.3975 -20.3957
   -20.3957 -20.3957 -20.3957 -20.3956 -20.3956 -20.3889 -20.3889 -20.3882
   -20.3882 -20.3882 -20.3882 -20.3882 -20.3882 -20.3870 -20.3870 -20.3870
   -20.3870 -20.3870 -20.3870 -20.3820 -20.3820 -20.3820 -20.3818 -20.3818
   -20.3818 -20.3818 -20.3818 -20.3818 -20.3780 -20.3717 -20.3717 -20.3710
   -20.3710 -20.3710 -20.3704 -20.3704 -20.3704 -20.3695 -20.3694 -20.3694
   -20.3694 -20.3694 -20.3694 -20.3665 -20.3665 -20.3665 -20.3665 -20.3665
   -20.3665 -20.3554 -20.3554 -20.3512 -20.3512 -20.3512 -20.3512 -20.3512
   -20.3512 -20.3394 -20.3394 -20.3394 -20.3357 -20.3357 -20.3329 -20.3329
   -20.3329 -20.3329 -20.3329 -20.3329 -20.3297 -20.3297 -20.3297 -20.3297
   -20.3297 -20.3297 -20.3277 -20.3277 -20.3277 -20.3277 -20.3276 -20.3276
   -20.3244 -20.3244 -20.3244 -20.3244 -20.3244 -20.3244 -20.3239 -20.3239
   -20.3239 -20.3234 -20.3234 -20.3234 -20.3234 -20.3234 -20.3234 -20.3221
   -20.3221 -20.3213 -20.3213 -20.3213 -20.3213 -20.3213 -20.3213 -20.3207
   -20.3207 -20.3207 -20.3207 -20.3207 -20.3207 -20.3196 -20.3196 -20.3196
   -20.3189 -20.3189 -20.3181 -20.3181 -20.3181 -20.3162 -20.3162 -20.3161
   -20.3161 -20.3161 -20.3161 -20.3156 -20.3156 -20.3156 -20.3076 -20.3076
   -20.3076 -20.3076 -20.3076 -20.3076 -20.3059 -20.3059 -20.3059 -20.3058
   -20.3057 -20.3057 -20.3057 -20.3057 -20.3057 -20.3050 -20.3050 -20.3050
   -20.3040 -20.3040 -20.3040 -20.3040 -20.3040 -20.3040 -20.3004 -20.3004
   -20.3004 -20.3004 -20.3004 -20.3004 -20.2938 -20.2907 -20.2907 -20.2907
   -20.2907 -20.2907 -20.2907 -20.2907 -20.2906 -20.2906 -20.2893 -20.2893
   -20.2893 -20.2893 -20.2893 -20.2893 -20.2892 -20.2892 -20.2892 -20.2892
   -20.2892 -20.2892 -20.2890 -20.2882 -20.2882 -20.2882 -20.2854 -20.2854
   -20.2854 -20.2854 -20.2854 -20.2854 -20.2841 -20.2841 -20.2841 -20.2841
   -20.2841 -20.2841 -20.2833 -20.2833 -20.2833 -20.2833 -20.2833 -20.2833
   -20.2099 -20.2093 -20.1952 -20.1952 -20.1952 -20.1952 -20.1952 -20.1951
   -20.1938 -20.1938 -20.1938 -20.1938 -20.1938 -20.1938 -20.1857 -20.1857
   -20.1857 -20.1856 -20.1856 -20.1856 -20.1852 -20.1851 -20.1851 -20.1851
   -20.1851 -20.1851 -20.1772 -20.1772 -20.1772 -20.1762 -20.1762 -20.1762
   -20.1711 -20.1711 -20.1711 -20.1711 -20.1711 -20.1711 -20.1704 -20.1704
   -20.1704 -20.1704 -20.1704 -20.1704 -20.1696 -20.1696 -20.1696 -20.1696
   -20.1696 -20.1696 -20.1597 -20.1597 -20.1597 -20.1597 -20.1597 -20.1597
   -20.1590 -20.1590 -20.1590 -20.1590 -20.1590 -20.1590 -20.1578 -20.1578
   -20.1578 -20.1578 -20.1578 -20.1578 -20.1577 -20.1577 -20.1577 -20.1577
   -20.1577 -20.1577 -20.1570 -20.1570 -20.1570 -20.1570 -20.1570 -20.1570
   -20.1566 -20.1566 -20.1566 -20.1563 -20.1563 -20.1562 -20.1540 -20.1540
   -20.1540 -20.1540 -20.1540 -20.1540 -20.1339 -20.1339 -20.1330 -20.1330
   -20.1287 -20.1287 -20.1287 -20.1287 -20.1287 -20.1287 -20.1278 -20.1277
   -20.1277 -20.1277 -20.1277 -20.1277 -20.1173 -20.1173 -20.1173 -20.1155
   -20.1155 -20.1155 -20.0995 -20.0995 -20.0994 -20.0994 -20.0964 -20.0964
   -20.0964 -20.0964 -20.0964 -20.0964 -20.0935 -20.0935 -20.0935 -20.0935
   -20.0935 -20.0935 -20.0777 -20.0777 -20.0777 -20.0777 -20.0777 -20.0777
   -20.0765 -20.0765 -20.0765 -20.0765 -20.0765 -20.0765 -20.0710 -20.0710
   -20.0710 -20.0665 -20.0665 -20.0664 -20.0538 -20.0538 -20.0538 -20.0538
   -20.0538 -20.0538 -20.0530 -20.0530 -20.0530 -20.0530 -20.0530 -20.0530
    -8.1902  -7.6662  -7.5321  -7.5321  -7.5321  -7.5321  -7.5321  -7.5321
    -7.0133  -7.0133  -7.0133  -7.0133  -7.0133  -7.0132  -6.9945  -6.4569
    -6.3433  -6.3433  -6.3433  -6.3433  -6.3433  -6.3433  -6.3397  -6.3397
    -6.3396  -6.3396  -6.3396  -6.3396  -6.1859  -6.1859  -6.1859  -5.8796
    -5.8796  -5.8796  -5.8796  -5.8796  -5.8796  -5.8233  -5.8233  -5.8232
    -5.7853  -5.7853  -5.7852  -5.7852  -5.7852  -5.7852  -5.3041  -5.3041
    -5.3040  -5.2706  -5.2706  -5.2706  -5.2706  -5.2706  -5.2705  -4.6381
    -4.6381  -4.6381  -4.5854  -4.5854  -4.5854  -4.5854  -4.5854  -4.5854
    -3.8664  -3.8664  -3.8663  -3.8663  -3.8663  -3.8663  -3.8550  -3.8550
    -3.8550  -3.1759  -3.1759  -3.1759  -3.1614  -3.1614  -3.1614  -3.1614
    -3.1614  -3.1614  -3.0895  -3.0895  -3.0895  -2.9313  -2.9313  -2.9313
    -2.7774  -2.7774  -2.7774  -2.7774  -2.7774  -2.7774  -2.5803  -2.5803
    -2.5803  -2.5803  -2.5803  -2.5803  -2.5313  -2.2450  -2.2450  -2.2450
    -2.2450  -2.2450  -2.2450  -1.6310  -1.6310  -1.6310  -1.6310  -1.6310
    -1.6310  -0.9786  -0.6319  -0.6319  -0.6319  -0.6319  -0.6319  -0.6319
     0.0002   0.0002   0.0002   0.0003   0.0003   0.0003   0.4962   0.4962
     0.4962   0.4962   0.4962   0.4962   0.5238   0.5238   0.5238   0.5238
     0.5238   0.5238   0.5611   0.5611   0.5611   0.5611   0.5611   0.5611
     0.7978   0.7978   0.7978   0.7978   0.7978   0.7979   0.9457   0.9952
     0.9952   0.9952   1.0107   1.0107   1.0107   1.0704   1.0704   1.0704
     1.0704   1.0704   1.0704   1.1728   1.1728   1.1728   1.1728   1.1728
     1.1729   1.3008   1.3008   1.3008   1.3008   1.3008   1.3008   1.4687
     1.4688   1.4688   1.7745   1.7745   1.7745   1.7745   1.7745   1.7745
     1.7946   1.7946   1.7946   1.9368   1.9368   1.9368   2.0937   2.0937
     2.0937   2.0937   2.0937   2.0937   2.3256   2.3256   2.3256   2.3256
     2.3256   2.3257   2.3948   2.3948   2.3948   2.3948   2.3948   2.3948
     2.4823   2.4823   2.4823   2.5526   2.5526   2.5526   2.5526   2.5526
     2.5526   2.8539   2.8540   2.8540   3.0873   3.0873   3.0897   3.0897
     3.0897   3.0897   3.0897   3.0897   3.1051   3.3551   3.3551   3.3551
     3.4529   3.4529   3.4529   3.4529   3.4529   3.4529   3.4853   3.4853
     3.7540   3.7540   3.7540   3.7540   3.7540   3.7540   3.9116   3.9116
     3.9116   3.9116   3.9116   3.9117   3.9655   3.9655   4.1519   4.1519
     4.1519   4.1695   4.1695   4.1695   4.1695   4.1695   4.1696   4.2799
     4.2799   4.4666   4.4666   4.4666   4.4666   4.4666   4.4666   4.5818
     4.9323   5.0776   5.2823   5.2824   5.2824   5.2923   5.4547   5.5406
     5.5406   5.5406   5.6953   5.6953   5.6953   5.6953   5.6953   5.6953
     5.7128   5.7128   5.7128   5.9985   5.9985   5.9985   5.9985   5.9985
     5.9985   6.1074   6.1074   6.1074   6.2467   6.2467   6.2467   6.2467
     6.2467   6.2467   6.3314   6.3314   6.3314   6.3886   6.3886   6.3886
     6.3886   6.3886   6.3886   6.3918   6.3918   6.3918   6.3918   6.3918
     6.3918   6.5737   6.5737   6.5738   6.5738   6.5738   6.5738   7.2492
     7.2492   7.3473   7.3473   7.3473   7.3473   7.3473   7.3473   7.5156
     7.5156   7.5156   7.5458   7.5458   7.5458   7.5458   7.5458   7.5458
     7.8712   7.8712   7.9454   7.9454   7.9454   7.9454   7.9454   7.9454
     8.1426   8.1671   8.1671   8.1671   8.1920   8.1926   8.1926   8.2271
     8.2271   8.3142   8.3142   8.3142   8.3142   8.3142   8.3142   8.3227
     8.3227   8.3227   8.3227   8.3227   8.3227   8.4188   8.4188   8.4188
     8.4188   8.4188   8.4188   8.6229   8.6229   8.6229   8.7053   8.7053
     8.7053   8.7054   8.7054   8.7054   8.7242   8.7242   8.7242   8.7242
     8.7243   8.7243   8.7829   8.7829   8.7829   8.7829   8.7830   8.7830
     9.0895   9.0895   9.0895   9.0895   9.0895   9.0895   9.2116   9.2116
     9.2116   9.2116   9.2116   9.2117   9.3036   9.3036   9.3036   9.3036
     9.3036   9.3037   9.3264   9.3264   9.3264   9.3264   9.3264   9.3265
     9.3444   9.3444   9.3444   9.3444   9.3444   9.3444   9.4113   9.4113
     9.4113   9.4113   9.4113

     the Fermi energy is     4.0989 ev

!    total energy              =  -22859.15625196 Ry
     estimated scf accuracy    <       0.00000006 Ry
     smearing contrib. (-TS)   =      -0.05180605 Ry
     internal energy E=F+TS    =  -22859.10444591 Ry

     The total energy is F=E-TS. E is the sum of the following terms:
     one-electron contribution =  -58762.52466567 Ry
     hartree contribution      =   30265.10722500 Ry
     xc contribution           =   -5581.64421980 Ry
     ewald contribution        =   11219.95721457 Ry

     convergence has been achieved in  11 iterations

     Forces acting on atoms (cartesian axes, Ry/au):

     atom    1 type  1   force =     0.00000631    0.00000364   -0.00614905
     atom    2 type  1   force =    -0.00000142   -0.00000128   -0.00795882
     atom    3 type  1   force =    -0.00000000    0.00000036    0.00309906
     atom    4 type  1   force =     0.00000051    0.00000030    0.00092506
     atom    5 type  1   force =     0.00000111    0.00000392   -0.00092645
     atom    6 type  1   force =     0.00000000    0.00000458   -0.00310157
     atom    7 type  1   force =     0.00000087    0.00000050    0.00795551
     atom    8 type  1   force =     0.00000071    0.00000194    0.00614473
     atom    9 type  1   force =     0.00000000   -0.00000271   -0.00614529
     atom   10 type  1   force =     0.00000063    0.00000036   -0.00795698
     atom   11 type  1   force =    -0.00000195    0.00000181    0.00310248
     atom   12 type  1   force =     0.00000000    0.00000040    0.00092617
     atom   13 type  1   force =     0.00000232    0.00000134   -0.00092633
     atom   14 type  1   force =     0.00000239    0.00000177   -0.00309990
     atom   15 type  1   force =     0.00000000    0.00000485    0.00795417
     atom   16 type  1   force =     0.00000801    0.00000462    0.00614090
     atom   17 type  1   force =    -0.00000054   -0.00000031   -0.00614557
     atom   18 type  1   force =    -0.00000182   -0.00000059   -0.00795882
     atom   19 type  1   force =     0.00000059   -0.00000259    0.00310248
     atom   20 type  1   force =    -0.00000245   -0.00000141    0.00092921
     atom   21 type  1   force =     0.00000394   -0.00000100   -0.00092645
     atom   22 type  1   force =     0.00000273    0.00000119   -0.00309990
     atom   23 type  1   force =     0.00000679    0.00000392    0.00796022
     atom   24 type  1   force =     0.00000204   -0.00000035    0.00614473
     atom   25 type  1   force =    -0.00000235    0.00000136   -0.00614529
     atom   26 type  1   force =     0.00000000    0.00000000   -0.00795106
     atom   27 type  1   force =     0.00000031   -0.00000018    0.00309906
     atom   28 type  1   force =     0.00000035   -0.00000020    0.00092617
     atom   29 type  1   force =     0.00000000    0.00000000   -0.00092494
     atom   30 type  1   force =     0.00000396   -0.00000229   -0.00310157
     atom   31 type  1   force =     0.00000420   -0.00000242    0.00795417
     atom   32 type  1   force =     0.00000000    0.00000000    0.00614434
     atom   33 type  1   force =    -0.00000448   -0.00000396   -0.00614691
     atom   34 type  1   force =     0.00000142   -0.00000128   -0.00795882
     atom   35 type  1   force =     0.00000220    0.00000127    0.00310266
     atom   36 type  1   force =     0.00000148   -0.00000077    0.00092760
     atom   37 type  1   force =    -0.00000111    0.00000392   -0.00092645
     atom   38 type  1   force =     0.00000267    0.00000154   -0.00310500
     atom   39 type  1   force =    -0.00000116   -0.00000226    0.00795102
     atom   40 type  1   force =    -0.00000071    0.00000194    0.00614473
     atom   41 type  1   force =    -0.00000567   -0.00000190   -0.00614691
     atom   42 type  1   force =    -0.00000000   -0.00000050   -0.00795153
     atom   43 type  1   force =     0.00000195    0.00000181    0.00310248
     atom   44 type  1   force =     0.00000008    0.00000167    0.00092760
     atom   45 type  1   force =     0.00000000    0.00000235   -0.00092012
     atom   46 type  1   force =    -0.00000239    0.00000177   -0.00309990
     atom   47 type  1   force =    -0.00000254    0.00000012    0.00795102
     atom   48 type  1   force =     0.00000000    0.00000957    0.00614664
     atom   49 type  1   force =     0.00000054   -0.00000031   -0.00614557
     atom   50 type  1   force =    -0.00000043    0.00000025   -0.00795153
     atom   51 type  1   force =     0.00000000    0.00000000    0.00310792
     atom   52 type  1   force =     0.00000245   -0.00000141    0.00092921
     atom   53 type  1   force =     0.00000203   -0.00000117   -0.00092012
     atom   54 type  1   force =     0.00000000    0.00000000   -0.00309873
     atom   55 type  1   force =    -0.00000679    0.00000392    0.00796022
     atom   56 type  1   force =     0.00000829   -0.00000479    0.00614664
     atom   57 type  1   force =     0.00000000    0.00000062   -0.00614557
     atom   58 type  1   force =    -0.00000040    0.00000188   -0.00795882
     atom   59 type  1   force =     0.00000254    0.00000078    0.00310248
     atom   60 type  1   force =     0.00000000    0.00000283    0.00092921
     atom   61 type  1   force =     0.00000284   -0.00000292   -0.00092645
     atom   62 type  1   force =     0.00000033   -0.00000296   -0.00309990
     atom   63 type  1   force =     0.00000000   -0.00000784    0.00796022
     atom   64 type  1   force =     0.00000133   -0.00000159    0.00614473
     atom   65 type  1   force =     0.00000448   -0.00000396   -0.00614691
     atom   66 type  1   force =    -0.00000585   -0.00000338   -0.00794910
     atom   67 type  1   force =     0.00000000   -0.00000300    0.00310320
     atom   68 type  1   force =    -0.00000148   -0.00000077    0.00092760
     atom   69 type  1   force =     0.00000306    0.00000177   -0.00092787
     atom   70 type  1   force =    -0.00000000    0.00000230   -0.00310288
     atom   71 type  1   force =     0.00000116   -0.00000226    0.00795102
     atom   72 type  1   force =    -0.00000102   -0.00000059    0.00614276
     atom   73 type  1   force =     0.00000000    0.00000000   -0.00614228
     atom   74 type  1   force =    -0.00000063    0.00000036   -0.00795698
     atom   75 type  1   force =    -0.00000259    0.00000150    0.00310320
     atom   76 type  1   force =     0.00000000    0.00000000    0.00093366
     atom   77 type  1   force =    -0.00000232    0.00000134   -0.00092633
     atom   78 type  1   force =     0.00000199   -0.00000115   -0.00310288
     atom   79 type  1   force =     0.00000000    0.00000000    0.00795565
     atom   80 type  1   force =    -0.00000801    0.00000462    0.00614090
     atom   81 type  1   force =    -0.00000119    0.00000586   -0.00614691
     atom   82 type  1   force =     0.00000043    0.00000025   -0.00795153
     atom   83 type  1   force =    -0.00000059   -0.00000259    0.00310248
     atom   84 type  1   force =    -0.00000140   -0.00000090    0.00092760
     atom   85 type  1   force =    -0.00000203   -0.00000117   -0.00092012
     atom   86 type  1   force =    -0.00000273    0.00000119   -0.00309990
     atom   87 type  1   force =    -0.00000138    0.00000214    0.00795102
     atom   88 type  1   force =    -0.00000829   -0.00000479    0.00614664
     atom   89 type  1   force =     0.00000235    0.00000136   -0.00614529
     atom   90 type  1   force =     0.00000000   -0.00000073   -0.00795698
     atom   91 type  1   force =    -0.00000254    0.00000078    0.00310248
     atom   92 type  1   force =    -0.00000035   -0.00000020    0.00092617
     atom   93 type  1   force =     0.00000000   -0.00000268   -0.00092633
     atom   94 type  1   force =    -0.00000033   -0.00000296   -0.00309990
     atom   95 type  1   force =    -0.00000420   -0.00000242    0.00795417
     atom   96 type  1   force =     0.00000000   -0.00000925    0.00614090
     atom   97 type  1   force =    -0.00000631    0.00000364   -0.00614905
     atom   98 type  1   force =     0.00000585   -0.00000338   -0.00794910
     atom   99 type  1   force =    -0.00000220    0.00000127    0.00310266
     atom  100 type  1   force =    -0.00000051    0.00000030    0.00092506
     atom  101 type  1   force =    -0.00000306    0.00000177   -0.00092787
     atom  102 type  1   force =    -0.00000267    0.00000154   -0.00310500
     atom  103 type  1   force =    -0.00000087    0.00000050    0.00795551
     atom  104 type  1   force =     0.00000102   -0.00000059    0.00614276
     atom  105 type  1   force =     0.00000567   -0.00000190   -0.00614691
     atom  106 type  1   force =     0.00000000    0.00000675   -0.00794910
     atom  107 type  1   force =     0.00000259    0.00000150    0.00310320
     atom  108 type  1   force =    -0.00000008    0.00000167    0.00092760
     atom  109 type  1   force =     0.00000000   -0.00000354   -0.00092787
     atom  110 type  1   force =    -0.00000199   -0.00000115   -0.00310288
     atom  111 type  1   force =     0.00000254    0.00000012    0.00795102
     atom  112 type  1   force =    -0.00000000    0.00000118    0.00614276
     atom  113 type  1   force =     0.00000119    0.00000586   -0.00614691
     atom  114 type  1   force =     0.00000182   -0.00000059   -0.00795882
     atom  115 type  1   force =     0.00000000   -0.00000254    0.00310266
     atom  116 type  1   force =     0.00000140   -0.00000090    0.00092760
     atom  117 type  1   force =    -0.00000394   -0.00000100   -0.00092645
     atom  118 type  1   force =     0.00000000   -0.00000309   -0.00310500
     atom  119 type  1   force =     0.00000138    0.00000214    0.00795102
     atom  120 type  1   force =    -0.00000204   -0.00000035    0.00614473
     atom  121 type  1   force =     0.00000000   -0.00000728   -0.00614905
     atom  122 type  1   force =     0.00000040    0.00000188   -0.00795882
     atom  123 type  1   force =    -0.00000031   -0.00000018    0.00309906
     atom  124 type  1   force =     0.00000000   -0.00000059    0.00092506
     atom  125 type  1   force =    -0.00000284   -0.00000292   -0.00092645
     atom  126 type  1   force =    -0.00000396   -0.00000229   -0.00310157
     atom  127 type  1   force =     0.00000000   -0.00000101    0.00795551
     atom  128 type  1   force =    -0.00000133   -0.00000159    0.00614473

     Total force =     0.059738     Total SCF correction =     0.001334
     Energy error            =      4.4E-03 Ry
     Gradient error          =      8.0E-03 Ry/Bohr

     number of scf cycles    =   2
     number of bfgs steps    =   1

     energy             old  =  -22859.1518560374 Ry
     energy             new  =  -22859.1562519593 Ry

     CASE: energy            _new < energy            _old


     WARNING: bfgs curvature condition failed, Theta= 0.930
     new trust radius        =       0.0090519729 bohr
     new conv_thr            =       0.0000000796 Ry


ATOMIC_POSITIONS (angstrom)
Ge            2.0063710918        1.1583785715        5.8114537065
Ge           -2.0063666348        3.4751238646        4.9908661323
Ge            0.0000009705        2.3167487466        9.1000147987
Ge            2.0063653678        1.1583749765        8.2781019815
Ge           -2.0063588586        3.4751259659       12.3701232606
Ge            0.0000012477        2.3167519084       11.5482061430
Ge            2.0063665560        1.1583747920       15.6573757004
Ge           -2.0063634988        3.4751213715       14.8367813008
Ge            0.0000009705        4.6334942077        5.8114558090
Ge           -4.0127265153        6.9502479872        4.9908643095
Ge           -2.0063647689        5.7918747063        9.1000166274
Ge            0.0000012477        4.6334989132        8.2781021740
Ge           -4.0127214324        6.9502500513       12.3701239206
Ge           -2.0063580408        5.7918737171       11.5482078547
Ge            0.0000020796        4.6335027966       15.6573691814
Ge           -4.0127210812        6.9502499638       14.8367804652
Ge           -2.0063653550        8.1086209698        5.8114543631
Ge           -6.0190914365       10.4253691995        4.9908661323
Ge           -4.0127254235        9.2669943491        9.1000166274
Ge           -2.0063656809        8.1086204916        8.2781058422
Ge           -6.0190849748       10.4253735774       12.3701232606
Ge           -4.0127226648        9.2670002352       11.5482078547
Ge           -2.0063525995        8.1086271735       15.6573695611
Ge           -6.0190910224       10.4253714208       14.8367813008
Ge           -4.0127293397       11.5837490835        5.8114558090
Ge            0.0000001386       -0.0000000651        4.9908725528
Ge           -6.0190890062       12.7421215539        9.1000147987
Ge           -4.0127248747       11.5837465356        8.2781021740
Ge            0.0000009705       -0.0000004554       12.3701254572
Ge           -6.0190858781       12.7421197778       11.5482061430
Ge           -4.0127203417       11.5837440084       15.6573691814
Ge            0.0000012477       -0.0000005855       14.8367786349
Ge            6.0190873124        1.1583727952        5.8114553870
Ge            2.0063680212        3.4751238646        4.9908661323
Ge            4.0127289781        2.3167493737        9.1000172327
Ge            6.0190933458        1.1583705319        8.2781009037
Ge            2.0063619087        3.4751259659       12.3701232606
Ge            4.0127284875        2.3167488003       11.5482021825
Ge            6.0190918455        1.1583736845       15.6573707790
Ge            2.0063671034        3.4751213715       14.8367813008
Ge            4.0127247542        4.6334957351        5.8114553870
Ge            0.0000012477        6.9502463601        4.9908745481
Ge            2.0063678190        5.7918747063        9.1000166274
Ge            4.0127260622        4.6335016565        8.2781009037
Ge            0.0000020796        6.9502500090       12.3701278971
Ge            2.0063616454        5.7918737171       11.5482078547
Ge            4.0127287962        4.6334974751       15.6573707790
Ge            0.0000023569        6.9502575465       14.8367878063
Ge            2.0063684051        8.1086209698        5.8114543631
Ge           -2.0063634883       10.4253730723        4.9908745481
Ge            0.0000020796        9.2669972848        9.1000228119
Ge            2.0063692855        8.1086204916        8.2781058422
Ge           -2.0063591584       10.4253706624       12.3701278971
Ge            0.0000023569        9.2669971547       11.5482086137
Ge            2.0063578678        8.1086271735       15.6573695611
Ge           -2.0063522409       10.4253666985       14.8367878063
Ge            0.0000020796       11.5837504350        5.8114543631
Ge            4.0127293289        0.0000030906        4.9908661323
Ge           -2.0063585749       12.7421227991        9.1000166274
Ge            0.0000023569       11.5837510013        8.2781058422
Ge            4.0127288463       -0.0000045595       12.3701232606
Ge           -2.0063622672       12.7421175119       11.5482078547
Ge            0.0000031887       11.5837364666       15.6573695611
Ge            4.0127277161        0.0000018012       14.8367813008
Ge           10.0318237216        1.1583727952        5.8114553870
Ge            6.0190854730        3.4751202431        4.9908689305
Ge            8.0254560716        2.3167436600        9.1000167854
Ge           10.0318182428        1.1583705319        8.2781009037
[...]
     atom    6 type  1   force =     0.00000000    0.00000054   -0.00054330
     atom    7 type  1   force =     0.00000089    0.00000051   -0.00068828
     atom    8 type  1   force =    -0.00000244   -0.00000018    0.00110875
     atom    9 type  1   force =     0.00000000   -0.00000077   -0.00111146
     atom   10 type  1   force =     0.00000027    0.00000015    0.00067837
     atom   11 type  1   force =    -0.00000057   -0.00000003    0.00055053
     atom   12 type  1   force =     0.00000000   -0.00000064   -0.00094714
     atom   13 type  1   force =    -0.00000303   -0.00000175    0.00095314
     atom   14 type  1   force =    -0.00000241   -0.00000133   -0.00054343
     atom   15 type  1   force =     0.00000000   -0.00000264   -0.00069444
     atom   16 type  1   force =    -0.00000314   -0.00000181    0.00110611
     atom   17 type  1   force =    -0.00000061   -0.00000035   -0.00111182
     atom   18 type  1   force =    -0.00000026    0.00000098    0.00067842
     atom   19 type  1   force =    -0.00000031   -0.00000048    0.00055053
     atom   20 type  1   force =     0.00000073    0.00000042   -0.00094853
     atom   21 type  1   force =     0.00000015   -0.00000100    0.00095379
     atom   22 type  1   force =    -0.00000235   -0.00000142   -0.00054343
     atom   23 type  1   force =    -0.00000402   -0.00000232   -0.00068367
     atom   24 type  1   force =    -0.00000137   -0.00000203    0.00110875
     atom   25 type  1   force =    -0.00000067    0.00000039   -0.00111146
     atom   26 type  1   force =     0.00000000    0.00000000    0.00069100
     atom   27 type  1   force =    -0.00000067    0.00000038    0.00055157
     atom   28 type  1   force =    -0.00000056    0.00000032   -0.00094714
     atom   29 type  1   force =     0.00000000    0.00000000    0.00095149
     atom   30 type  1   force =     0.00000046   -0.00000027   -0.00054330
     atom   31 type  1   force =    -0.00000229    0.00000132   -0.00069444
     atom   32 type  1   force =     0.00000000   -0.00000000    0.00110786
     atom   33 type  1   force =     0.00000157    0.00000002   -0.00111351
     atom   34 type  1   force =    -0.00000071   -0.00000072    0.00067842
     atom   35 type  1   force =    -0.00000095   -0.00000055    0.00055222
     atom   36 type  1   force =     0.00000102    0.00000164   -0.00094595
     atom   37 type  1   force =     0.00000079    0.00000063    0.00095379
     atom   38 type  1   force =     0.00000082    0.00000047   -0.00054198
     atom   39 type  1   force =    -0.00000107    0.00000049   -0.00069090
     atom   40 type  1   force =     0.00000244   -0.00000018    0.00110875
     atom   41 type  1   force =     0.00000080    0.00000135   -0.00111351
     atom   42 type  1   force =    -0.00000000    0.00000250    0.00068559
     atom   43 type  1   force =     0.00000057   -0.00000003    0.00055053
     atom   44 type  1   force =     0.00000193    0.00000006   -0.00094595
     atom   45 type  1   force =    -0.00000000   -0.00000388    0.00095043
     atom   46 type  1   force =     0.00000241   -0.00000133   -0.00054343
     atom   47 type  1   force =    -0.00000011   -0.00000117   -0.00069090
     atom   48 type  1   force =     0.00000000   -0.00000380    0.00110551
     atom   49 type  1   force =     0.00000061   -0.00000035   -0.00111182
     atom   50 type  1   force =     0.00000216   -0.00000125    0.00068559
     atom   51 type  1   force =     0.00000000    0.00000000    0.00054977
     atom   52 type  1   force =    -0.00000073    0.00000042   -0.00094853
     atom   53 type  1   force =    -0.00000336    0.00000194    0.00095043
     atom   54 type  1   force =     0.00000000    0.00000000   -0.00054434
     atom   55 type  1   force =     0.00000402   -0.00000232   -0.00068367
     atom   56 type  1   force =    -0.00000329    0.00000190    0.00110551
     atom   57 type  1   force =     0.00000000    0.00000070   -0.00111182
     atom   58 type  1   force =    -0.00000098   -0.00000026    0.00067842
     atom   59 type  1   force =     0.00000026    0.00000051    0.00055053
     atom   60 type  1   force =     0.00000000   -0.00000084   -0.00094853
     atom   61 type  1   force =     0.00000094    0.00000037    0.00095379
     atom   62 type  1   force =     0.00000005    0.00000275   -0.00054343
     atom   63 type  1   force =    -0.00000000    0.00000465   -0.00068367
     atom   64 type  1   force =     0.00000107    0.00000220    0.00110875
     atom   65 type  1   force =    -0.00000157    0.00000002   -0.00111351
     atom   66 type  1   force =     0.00000100    0.00000058    0.00068468
     atom   67 type  1   force =     0.00000000    0.00000245    0.00055190
     atom   68 type  1   force =    -0.00000102    0.00000164   -0.00094595
     atom   69 type  1   force =     0.00000031    0.00000018    0.00095261
     atom   70 type  1   force =     0.00000000    0.00000123   -0.00054335
     atom   71 type  1   force =     0.00000107    0.00000049   -0.00069090
     atom   72 type  1   force =    -0.00000221   -0.00000128    0.00110717
     atom   73 type  1   force =     0.00000000    0.00000000   -0.00111377
     atom   74 type  1   force =    -0.00000027    0.00000015    0.00067837
     atom   75 type  1   force =     0.00000212   -0.00000122    0.00055190
     atom   76 type  1   force =     0.00000000    0.00000000   -0.00094931
     atom   77 type  1   force =     0.00000303   -0.00000175    0.00095314
     atom   78 type  1   force =     0.00000106   -0.00000061   -0.00054335
     atom   79 type  1   force =     0.00000000    0.00000000   -0.00068986
     atom   80 type  1   force =     0.00000314   -0.00000181    0.00110611
     atom   81 type  1   force =    -0.00000077   -0.00000137   -0.00111351
     atom   82 type  1   force =    -0.00000216   -0.00000125    0.00068559
     atom   83 type  1   force =     0.00000031   -0.00000048    0.00055053
     atom   84 type  1   force =     0.00000091   -0.00000170   -0.00094595
     atom   85 type  1   force =     0.00000336    0.00000194    0.00095043
     atom   86 type  1   force =     0.00000235   -0.00000142   -0.00054343
     atom   87 type  1   force =     0.00000096    0.00000068   -0.00069090
     atom   88 type  1   force =     0.00000329    0.00000190    0.00110551
     atom   89 type  1   force =     0.00000067    0.00000039   -0.00111146
     atom   90 type  1   force =     0.00000000   -0.00000031    0.00067837
     atom   91 type  1   force =    -0.00000026    0.00000051    0.00055053
     atom   92 type  1   force =     0.00000056    0.00000032   -0.00094714
     atom   93 type  1   force =     0.00000000    0.00000349    0.00095314
     atom   94 type  1   force =    -0.00000005    0.00000275   -0.00054343
     atom   95 type  1   force =     0.00000229    0.00000132   -0.00069444
     atom   96 type  1   force =     0.00000000    0.00000362    0.00110611
     atom   97 type  1   force =    -0.00000001    0.00000000   -0.00111369
     atom   98 type  1   force =    -0.00000100    0.00000058    0.00068468
     atom   99 type  1   force =     0.00000095   -0.00000055    0.00055222
     atom  100 type  1   force =     0.00000245   -0.00000141   -0.00094798
     atom  101 type  1   force =    -0.00000031    0.00000018    0.00095261
     atom  102 type  1   force =    -0.00000082    0.00000047   -0.00054198
     atom  103 type  1   force =    -0.00000089    0.00000051   -0.00068828
     atom  104 type  1   force =     0.00000221   -0.00000128    0.00110717
     atom  105 type  1   force =    -0.00000080    0.00000135   -0.00111351
     atom  106 type  1   force =     0.00000000   -0.00000116    0.00068468
     atom  107 type  1   force =    -0.00000212   -0.00000122    0.00055190
     atom  108 type  1   force =    -0.00000193    0.00000006   -0.00094595
     atom  109 type  1   force =     0.00000000   -0.00000036    0.00095261
     atom  110 type  1   force =    -0.00000106   -0.00000061   -0.00054335
     atom  111 type  1   force =     0.00000011   -0.00000117   -0.00069090
     atom  112 type  1   force =     0.00000000    0.00000255    0.00110717
     atom  113 type  1   force =     0.00000077   -0.00000137   -0.00111351
     atom  114 type  1   force =     0.00000026    0.00000098    0.00067842
     atom  115 type  1   force =     0.00000000    0.00000110    0.00055222
     atom  116 type  1   force =    -0.00000091   -0.00000170   -0.00094595
     atom  117 type  1   force =    -0.00000015   -0.00000100    0.00095379
     atom  118 type  1   force =    -0.00000000   -0.00000094   -0.00054198
     atom  119 type  1   force =    -0.00000096    0.00000068   -0.00069090
     atom  120 type  1   force =     0.00000137   -0.00000203    0.00110875
     atom  121 type  1   force =     0.00000000   -0.00000001   -0.00111369
     atom  122 type  1   force =     0.00000098   -0.00000026    0.00067842
     atom  123 type  1   force =     0.00000067    0.00000038    0.00055157
     atom  124 type  1   force =     0.00000000    0.00000283   -0.00094798
     atom  125 type  1   force =    -0.00000094    0.00000037    0.00095379
     atom  126 type  1   force =    -0.00000046   -0.00000027   -0.00054330
     atom  127 type  1   force =    -0.00000000   -0.00000103   -0.00068828
     atom  128 type  1   force =    -0.00000107    0.00000220    0.00110875

     Total force =     0.009641     Total SCF correction =     0.000513
     Energy error            =      1.2E-04 Ry
     Gradient error          =      1.1E-03 Ry/Bohr

     number of scf cycles    =  14
     number of bfgs steps    =  13

     energy             old  =  -22859.2296795437 Ry
     energy             new  =  -22859.2297999114 Ry

     CASE: energy            _new < energy            _old


     WARNING: bfgs curvature condition failed, Theta= 0.959
     new trust radius        =       0.0020636280 bohr
     new conv_thr            =       0.0000000111 Ry


ATOMIC_POSITIONS (angstrom)
Ge            2.0064166656        1.1584048835        5.6984623725
Ge           -2.0063788185        3.4751295449        4.7709146797
Ge            0.0000009705        2.3167485134        9.0744097681
Ge            2.0063647761        1.1583746349        8.2128691877
Ge           -2.0063501649        3.4751286831       12.4353119932
Ge            0.0000012477        2.3167465950       11.5737340762
Ge            2.0063473542        1.1583637058       15.8774267063
Ge           -2.0063764154        3.4750834525       14.9497702420
Ge            0.0000009705        4.6334403321        5.6984747628
Ge           -4.0127531392        6.9502326159        4.7709124791
Ge           -2.0063599976        5.7918760640        9.0744324145
Ge            0.0000012477        4.6335071863        8.2128696076
Ge           -4.0127056445        6.9502591664       12.4353215554
Ge           -2.0063390820        5.7918789449       11.5737558510
Ge            0.0000020796        4.6335021460       15.8772178555
Ge           -4.0127075945        6.9502577504       14.9497707232
Ge           -2.0064105289        8.1085948887        5.6984768190
Ge           -6.0190926091       10.4253558080        4.7709146797
Ge           -4.0127218621        9.2669978022        9.0744324145
Ge           -2.0063574425        8.1086252480        8.2128903042
Ge           -6.0190782747       10.4253797478       12.4353119932
Ge           -4.0127086579        9.2670140400       11.5737558510
Ge           -2.0063557699        8.1086253431       15.8773364064
Ge           -6.0191303195       10.4253791943       14.9497702420
Ge           -4.0127759974       11.5837760213        5.6984747628
Ge            0.0000001386       -0.0000000651        4.7711207883
Ge           -6.0190892082       12.7421216705        9.0744097681
Ge           -4.0127177100       11.5837423991        8.2128696076
Ge            0.0000009705       -0.0000004554       12.4353298151
Ge           -6.0190904796       12.7421224346       11.5737340762
Ge           -4.0127209052       11.5837443338       15.8772178555
Ge            0.0000012477       -0.0000005855       14.9497537244
Ge            6.0190909993        1.1583734276        5.6984688813
Ge            2.0063802049        3.4751295449        4.7709146797
Ge            4.0127366772        2.3167538188        9.0744113694
Ge            6.0190943109        1.1583617422        8.2128621322
Ge            2.0063532150        3.4751286831       12.4353119932
Ge            4.0127223372        2.3167452494       11.5737375559
Ge            6.0190930698        1.1583649250       15.8773330011
Ge            2.0063800200        3.4750834525       14.9497702420
Ge            4.0127271454        4.6334986119        5.6984688813
Ge            0.0000012477        6.9502285057        4.7711135823
Ge            2.0063630477        5.7918760640        9.0744324145
Ge            4.0127189326        4.6335068872        8.2128621322
Ge            0.0000020796        6.9502538283       12.4353494020
Ge            2.0063426866        5.7918789449       11.5737558510
Ge            4.0127218223        4.6335029151       15.8773330011
Ge            0.0000023569        6.9502852817       14.9497930277
Ge            2.0064135790        8.1085948887        5.6984768190
Ge           -2.0063789507       10.4253819995        4.7711135823
Ge            0.0000020796        9.2669972848        9.0744494484
Ge            2.0063610471        8.1086252480        8.2128903042
Ge           -2.0063558508       10.4253687528       12.4353494020
Ge            0.0000023569        9.2669971547       11.5737676100
Ge            2.0063610382        8.1086253431       15.8773364064
Ge           -2.0063282215       10.4253528309       14.9497930277
Ge            0.0000020796       11.5838025973        5.6984768190
Ge            4.0127403400        0.0000108018        4.7709146797
Ge           -2.0063597847       12.7421179882        9.0744324145
Ge            0.0000023569       11.5837414884        8.2128903042
Ge            4.0127268526       -0.0000134471       12.4353119932
Ge           -2.0063672191       12.7420984792       11.5737558510
Ge            0.0000031887       11.5837401273       15.8773364064
Ge            4.0127013356        0.0000319467       14.9497702420
Ge           10.0318200347        1.1583734276        5.6984688813
Ge            6.0190924636        3.4751242791        4.7709661808
Ge            8.0254560716        2.3167221993        9.0744312608
Ge           10.0318172777        1.1583617422        8.2128621322
Ge            6.0190871145        3.4751203202       12.4353261721
Ge            8.0254563488        2.3167388349       11.5737607433
Ge           10.0318201825        1.1583649250       15.8773330011
Ge            6.0190876174        3.4751203204       14.9497859326
Ge            8.0254560716        4.6334986749        5.6985187066
Ge            4.0127556347        6.9502326159        4.7709124791
Ge            6.0190695458        5.7918866525        9.0744312608
Ge            8.0254563488        4.6334985448        8.2129183671
Ge            4.0127098036        6.9502591664       12.4353215554
Ge            6.0190843424        5.7918781396       11.5737607433
Ge            8.0254571807        4.6334981545       15.8773535654
Ge            4.0127123082        6.9502577504       14.9497707232
Ge            6.0190922177        8.1086239852        5.6984688813
Ge            2.0063825553       10.4253819995        4.7711135823
Ge            4.0127260212        9.2669978022        9.0744324145
Ge            6.0190809705        8.1086270051        8.2128621322
Ge            2.0063611191       10.4253687528       12.4353494020
Ge            4.0127133716        9.2670140400       11.5737558510
Ge            6.0190859333        8.1086266235       15.8773330011
Ge            2.0063340443       10.4253528309       14.9497930277
Ge            4.0127801565       11.5837760213        5.6984747628
Ge            8.0254552397        0.0000309229        4.7709124791
Ge            2.0063650530       12.7421179882        9.0744324145
Ge            4.0127224237       11.5837423991        8.2128696076
Ge            8.0254560716       -0.0000233491       12.4353215554
Ge            2.0063730419       12.7420984792       11.5737558510
Ge            4.0127272825       11.5837443338       15.8772178555
Ge            8.0254563488       -0.0000209073       14.9497707232
Ge           14.0444943684        1.1584048835        5.6984623725
Ge           10.0318191250        3.4751242791        4.7709661808
Ge           12.0381754659        2.3167538188        9.0744113694
Ge           14.0445468125        1.1583746349        8.2128691877
Ge           10.0318261378        3.4751203202       12.4353261721
Ge           12.0381903605        2.3167452494       11.5737375559
Ge           14.0445658980        1.1583637058       15.8774267063
Ge           10.0318261894        3.4751203204       14.9497859326
Ge           12.0381849977        4.6334986119        5.6984688813
Ge            8.0254563488        6.9502475966        4.7709661808
Ge           10.0318437065        5.7918866525        9.0744312608
Ge           12.0381937651        4.6335068872        8.2128621322
Ge            8.0254571807        6.9502543435       12.4353261721
Ge           10.0318294644        5.7918781396       11.5737607433
Ge           12.0381925390        4.6335029151       15.8773330011
Ge            8.0254574580        6.9502539527       14.9497859326
Ge           10.0318210346        8.1086239852        5.6984688813
Ge            6.0190962137       10.4253558080        4.7709146797
Ge            8.0254571807        9.2669878669        9.0744113694
Ge           10.0318328363        8.1086270051        8.2128621322
Ge            6.0190835430       10.4253797478       12.4353119932
Ge            8.0254574580        9.2670046153       11.5737375559
Ge           10.0318295372        8.1086266235       15.8773330011
Ge            6.0191361423       10.4253791943       14.9497702420
Ge            8.0254571807       11.5836862576        5.6984623725
Ge           12.0381701395        0.0000108018        4.7709146797
Ge            6.0190944765       12.7421216705        9.0744097681
Ge            8.0254574580       11.5837463646        8.2128691877
Ge           12.0381852905       -0.0000134471       12.4353119932
Ge            6.0190963024       12.7421224346       11.5737340762
Ge            8.0254582898       11.5837670519       15.8774267063
Ge           12.0382113621        0.0000319467       14.9497702420



     Writing output data file ./out/ge.save/
     NEW-OLD atomic charge density approx. for the potential

     total cpu time spent up to now is     3532.3 secs

     Self-consistent Calculation

     iteration #  1     ecut=    60.00 Ry     beta= 0.40
     Davidson diagonalization with overlap
     ethr =  1.00E-06,  avg # of iterations =  3.0

     Threshold (ethr) on eigenvalues was too large:
     Diagonalizing with lowered threshold

     Davidson diagonalization with overlap
     ethr =  6.05E-10,  avg # of iterations =  4.0

     total cpu time spent up to now is     3573.2 secs

     total energy              =  -22859.22991446 Ry
     estimated scf accuracy    <       0.00000702 Ry

     iteration #  2     ecut=    60.00 Ry     beta= 0.40
     Davidson diagonalization with overlap
     ethr =  3.92E-10,  avg # of iterations =  3.0

     total cpu time spent up to now is     3587.6 secs

     total energy              =  -22859.22990960 Ry
     estimated scf accuracy    <       0.00011668 Ry

     iteration #  3     ecut=    60.00 Ry     beta= 0.40
     Davidson diagonalization with overlap
     ethr =  3.92E-10,  avg # of iterations =  3.0

     total cpu time spent up to now is     3601.7 secs

     total energy              =  -22859.22991475 Ry
     estimated scf accuracy    <       0.00001126 Ry

     iteration #  4     ecut=    60.00 Ry     beta= 0.40
     Davidson diagonalization with overlap
