
     Program PWSCF v.6.8 starts on 28Apr2025 at 22:52:10 

     This program is part of the open-source Quantum ESPRESSO suite
     for quantum simulation of materials; please cite
         "P. Giannozzi et al., J. Phys.:Condens. Matter 21 395502 (2009);
         "P. Giannozzi et al., J. Phys.:Condens. Matter 29 465901 (2017);
         "P. Giannozzi et al., J. Chem. Phys. 152 154105 (2020);
          URL http://www.quantum-espresso.org", 
     in publications or presentations arising from this work. More details at
     http://www.quantum-espresso.org/quote

     Parallel version (MPI & OpenMP), running on      56 processor cores
     Number of MPI processes:                56
     Threads/MPI process:                     1

     MPI processes distributed on     1 nodes
     R & G space division:  proc/nbgrp/npool/nimage =      56
     186292 MiB available memory on the printing compute node when the environment starts
 
     Reading input from surface_relax.in
Warning: card &CELL ignored
Warning: card / ignored
Warning: card &FCP ignored
Warning: card / ignored
Warning: card &RISM ignored
Warning: card / ignored

     Current dimensions of program PWSCF are:
     Max number of different atomic species (ntypx) = 10
     Max number of k-points (npk) =  40000
     Max angular momentum in pseudopotentials (lmaxx) =  4

     gamma-point specific algorithms are used

     Subspace diagonalization in iterative solution of the eigenvalue problem:
     one sub-group per band group will be used
     scalapack distributed-memory algorithm (size of sub-group:  7*  7 procs)

 
     Parallelization info
     --------------------
     sticks:   dense  smooth     PW     G-vecs:    dense   smooth      PW
     Min         228     228     55                31680    31680    3948
     Max         230     230     58                31698    31698    3974
     Sum       12847   12847   3201              1774653  1774653  221811
 
     Using Slab Decomposition
 


     bravais-lattice index     =            0
     lattice parameter (alat)  =      30.8404  a.u.
     unit-cell volume          =   28265.6097 (a.u.)^3
     number of atoms/cell      =           96
     number of atomic types    =            1
     number of electrons       =      1344.00
     number of Kohn-Sham states=          806
     kinetic-energy cutoff     =      60.0000  Ry
     charge density cutoff     =     240.0000  Ry
     scf convergence threshold =      1.0E-06
     mixing beta               =       0.4000
     number of iterations used =            8  plain     mixing
     energy convergence thresh.=      1.0E-04
     force convergence thresh. =      1.0E-03
     Exchange-correlation= PBE
                           (   1   4   3   4   0   0   0)
     nstep                     =          100


     celldm(1)=  30.840377  celldm(2)=   0.000000  celldm(3)=   0.000000
     celldm(4)=   0.000000  celldm(5)=   0.000000  celldm(6)=   0.000000

     crystal axes: (cart. coord. in units of alat)
               a(1) = (   1.000000   0.000000   0.000000 )  
               a(2) = (   0.000000   0.707107   0.000000 )  
               a(3) = (   0.000000   0.000000   1.362744 )  

     reciprocal axes: (cart. coord. in units 2 pi/alat)
               b(1) = (  1.000000  0.000000  0.000000 )  
               b(2) = (  0.000000  1.414214  0.000000 )  
               b(3) = (  0.000000  0.000000  0.733813 )  


     PseudoPot. # 1 for Ge read from file:
     ./Ge.upf
     MD5 check sum: 087fa14d6c89b52166990835c3b338da
     Pseudo is Norm-conserving + core correction, Zval = 14.0
     Generated using ONCVPSP code by D. R. Hamann
     Using radial grid of 1560 points,  6 beta functions with: 
                l(1) =   0
                l(2) =   0
                l(3) =   1
                l(4) =   1
                l(5) =   2
                l(6) =   2

     atomic species   valence    mass     pseudopotential
        Ge            14.00    72.63000     Ge( 1.00)

     No symmetry found



   Cartesian axes

     site n.     atom                  positions (alat units)
         1           Ge  tau(   1) = (   0.0001775  -0.0009227   0.3053813  )
         2           Ge  tau(   2) = (  -0.0005021   0.2652847   0.4314594  )
         3           Ge  tau(   3) = (   0.3752386   0.1772557   0.4314668  )
         4           Ge  tau(   4) = (   0.1252461   0.0884827   0.3056699  )
         5           Ge  tau(   5) = (   0.1259603   0.1768674   0.4315829  )
         6           Ge  tau(   6) = (   0.3746873   0.0894302   1.0567885  )
         7           Ge  tau(   7) = (   0.2512108  -0.0012253   0.3071574  )
         8           Ge  tau(   8) = (   0.2492558   0.2641862   0.4320373  )
         9           Ge  tau(   9) = (   0.2499236  -0.0002028   0.5551817  )
        10           Ge  tau(  10) = (   0.2501840   0.2640129   0.6803589  )
        11           Ge  tau(  11) = (   0.1245870   0.1777048   0.6807521  )
        12           Ge  tau(  12) = (   0.3754509   0.0872992   0.5574351  )
        13           Ge  tau(  13) = (   0.3757288   0.1770370   0.6821452  )
        14           Ge  tau(  14) = (   0.1242357   0.0876451   0.5564753  )
        15           Ge  tau(  15) = (  -0.0009924  -0.0009929   0.5563411  )
        16           Ge  tau(  16) = (   0.0006225   0.2641659   0.6809762  )
        17           Ge  tau(  17) = (   0.0009953  -0.0009692   0.8070174  )
        18           Ge  tau(  18) = (   0.4997176   0.2656108   0.9319485  )
        19           Ge  tau(  19) = (   0.3746541   0.1765924   0.9323958  )
        20           Ge  tau(  20) = (   0.1246503   0.0889012   0.8054329  )
        21           Ge  tau(  21) = (   0.1238433   0.1763949   0.9308881  )
        22           Ge  tau(  22) = (   0.3761091   0.0881737   0.8067810  )
        23           Ge  tau(  23) = (   0.2498423   0.0008169   0.8060147  )
        24           Ge  tau(  24) = (   0.2494206   0.2651209   0.9302550  )
        25           Ge  tau(  25) = (   0.0009618   0.3546948   0.3068665  )
        26           Ge  tau(  26) = (  -0.0008580   0.6183481   0.4301912  )
        27           Ge  tau(  27) = (   0.3741912   0.5292574   0.4305854  )
        28           Ge  tau(  28) = (   0.1248353   0.4428986   0.3070647  )
        29           Ge  tau(  29) = (   0.1260208   0.5296539   0.4302115  )
        30           Ge  tau(  30) = (   0.3760751   0.4419623   1.0552685  )
        31           Ge  tau(  31) = (   0.2507026   0.3536140   0.3069463  )
        32           Ge  tau(  32) = (   0.2492544   0.6198509   0.4310576  )
        33           Ge  tau(  33) = (   0.2488887   0.3539855   0.5561919  )
        34           Ge  tau(  34) = (   0.2501932   0.6178150   0.6815577  )
        35           Ge  tau(  35) = (   0.1251761   0.5300163   0.6821962  )
        36           Ge  tau(  36) = (   0.3744159   0.4413392   0.5562497  )
        37           Ge  tau(  37) = (   0.3760299   0.5312106   0.6822506  )
        38           Ge  tau(  38) = (   0.1260189   0.4410301   0.5571457  )
        39           Ge  tau(  39) = (  -0.0007177   0.3525262   0.5563194  )
        40           Ge  tau(  40) = (  -0.0000706   0.6187431   0.6818482  )
        41           Ge  tau(  41) = (   0.0010203   0.3526747   0.8061484  )
        42           Ge  tau(  42) = (   0.5003634   0.6197259   0.9321935  )
        43           Ge  tau(  43) = (   0.3745253   0.5309557   0.9319237  )
        44           Ge  tau(  44) = (   0.1249850   0.4428796   0.8055025  )
        45           Ge  tau(  45) = (   0.1246721   0.5309908   0.9317280  )
        46           Ge  tau(  46) = (   0.3762242   0.4426304   0.8057993  )
        47           Ge  tau(  47) = (   0.2492974   0.3542028   0.8074737  )
        48           Ge  tau(  48) = (   0.2501375   0.6187746   0.9325231  )
        49           Ge  tau(  49) = (   0.4995576  -0.0010726   0.3065594  )
        50           Ge  tau(  50) = (   0.5008490   0.2647148   0.4316814  )
        51           Ge  tau(  51) = (   0.8741563   0.1759166   0.4306380  )
        52           Ge  tau(  52) = (   0.6245910   0.0877507   0.3060892  )
        53           Ge  tau(  53) = (   0.6248368   0.1779833   0.4315145  )
        54           Ge  tau(  54) = (   0.8759262   0.0888829   1.0573029  )
        55           Ge  tau(  55) = (   0.7495469  -0.0005962   0.3057204  )
        56           Ge  tau(  56) = (   0.7494760   0.2659576   0.4306546  )
        57           Ge  tau(  57) = (   0.7502175   0.0000292   0.5560140  )
        58           Ge  tau(  58) = (   0.7489369   0.2653284   0.6814166  )
        59           Ge  tau(  59) = (   0.6252354   0.1778031   0.6814068  )
        60           Ge  tau(  60) = (   0.8755142   0.0878477   0.5558786  )
        61           Ge  tau(  61) = (   0.8762178   0.1760909   0.6818549  )
        62           Ge  tau(  62) = (   0.6245641   0.0890649   0.5572653  )
        63           Ge  tau(  63) = (   0.5004162   0.0003978   0.5553506  )
        64           Ge  tau(  64) = (   0.4991000   0.2656265   0.6824351  )
        65           Ge  tau(  65) = (   0.4997048  -0.0003910   0.8061274  )
        66           Ge  tau(  66) = (   0.0008206   0.2640618   0.9322072  )
        67           Ge  tau(  67) = (   0.8740913   0.1764801   0.9305316  )
        68           Ge  tau(  68) = (   0.6241604   0.0875450   0.8067359  )
        69           Ge  tau(  69) = (   0.6247950   0.1778036   0.9323800  )
        70           Ge  tau(  70) = (   0.8761110   0.0892269   0.8061040  )
        71           Ge  tau(  71) = (   0.7490121  -0.0011267   0.8073065  )
        72           Ge  tau(  72) = (   0.7497474   0.2660635   0.9324711  )
        73           Ge  tau(  73) = (   0.4991368   0.3536412   0.3067709  )
        74           Ge  tau(  74) = (   0.4989254   0.6194573   0.4315082  )
        75           Ge  tau(  75) = (   0.8752208   0.5311106   0.4307901  )
        76           Ge  tau(  76) = (   0.6250523   0.4422495   0.3058570  )
        77           Ge  tau(  77) = (   0.6239841   0.5294552   0.4302194  )
        78           Ge  tau(  78) = (   0.8750532   0.4415084   1.0567838  )
        79           Ge  tau(  79) = (   0.7499158   0.3524758   0.3062127  )
        80           Ge  tau(  80) = (   0.7504738   0.6194308   0.4315668  )
        81           Ge  tau(  81) = (   0.7507818   0.3529748   0.5566739  )
        82           Ge  tau(  82) = (   0.7493937   0.6183747   0.6814589  )
        83           Ge  tau(  83) = (   0.6251182   0.5308560   0.6807488  )
        84           Ge  tau(  84) = (   0.8750226   0.4427387   0.5569859  )
        85           Ge  tau(  85) = (   0.8738832   0.5291188   0.6816642  )
        86           Ge  tau(  86) = (   0.6252608   0.4412123   0.5556500  )
        87           Ge  tau(  87) = (   0.4999570   0.3537380   0.5574727  )
        88           Ge  tau(  88) = (   0.4995276   0.6194220   0.6808983  )
        89           Ge  tau(  89) = (   0.4988165   0.3542838   0.8055231  )
        90           Ge  tau(  90) = (   0.0007872   0.6176549   0.9304304  )
        91           Ge  tau(  91) = (   0.8745090   0.5296191   0.9308785  )
        92           Ge  tau(  92) = (   0.6249818   0.4417251   0.8063781  )
        93           Ge  tau(  93) = (   0.6241103   0.5314042   0.9320814  )
        94           Ge  tau(  94) = (   0.8739015   0.4427530   0.8058101  )
        95           Ge  tau(  95) = (   0.7507020   0.3537886   0.8071573  )
        96           Ge  tau(  96) = (   0.7502854   0.6176157   0.9315585  )

     number of k points=     1  Gaussian smearing, width (Ry)=  0.0100
                       cart. coord. in units 2pi/alat
        k(    1) = (   0.0000000   0.0000000   0.0000000), wk =   2.0000000

     Dense  grid:   887327 G-vectors     FFT dimensions: ( 160, 108, 216)

     Estimated max dynamical RAM per process >     198.38 MB

     Estimated total dynamical RAM >      10.85 GB

     Initial potential from superposition of free atoms

     starting charge 1343.92100, renormalised to 1344.00000

     negative rho (up, down):  3.367E-04 0.000E+00
     Starting wfcs are  864 randomized atomic wfcs

     total cpu time spent up to now is        3.4 secs

     Self-consistent Calculation

     iteration #  1     ecut=    60.00 Ry     beta= 0.40
     Davidson diagonalization with overlap
     ethr =  1.00E-02,  avg # of iterations =  3.0

     Threshold (ethr) on eigenvalues was too large:
     Diagonalizing with lowered threshold

     Davidson diagonalization with overlap
     ethr =  2.80E-04,  avg # of iterations = 11.0

     negative rho (up, down):  1.354E-04 0.000E+00

     total cpu time spent up to now is       26.1 secs

     total energy              =  -17142.52865574 Ry
     estimated scf accuracy    <       4.06062453 Ry

     iteration #  2     ecut=    60.00 Ry     beta= 0.40
     Davidson diagonalization with overlap
     ethr =  3.02E-04,  avg # of iterations =  9.0

     negative rho (up, down):  8.063E-05 0.000E+00

     total cpu time spent up to now is       38.0 secs

     total energy              =  -17139.26590005 Ry
     estimated scf accuracy    <      68.34322267 Ry

     iteration #  3     ecut=    60.00 Ry     beta= 0.40
     Davidson diagonalization with overlap
     ethr =  3.02E-04,  avg # of iterations = 10.0

     negative rho (up, down):  4.900E-05 0.000E+00

     total cpu time spent up to now is       49.6 secs

     total energy              =  -17143.31643793 Ry
     estimated scf accuracy    <       4.90643090 Ry

     iteration #  4     ecut=    60.00 Ry     beta= 0.40
     Davidson diagonalization with overlap
     ethr =  3.02E-04,  avg # of iterations =  7.0

     negative rho (up, down):  1.923E-05 0.000E+00

     total cpu time spent up to now is       58.5 secs

     total energy              =  -17142.78679689 Ry
     estimated scf accuracy    <      36.13049992 Ry

     iteration #  5     ecut=    60.00 Ry     beta= 0.40
     Davidson diagonalization with overlap
     ethr =  3.02E-04,  avg # of iterations =  3.0

     negative rho (up, down):  1.270E-08 0.000E+00

     total cpu time spent up to now is       66.3 secs

     total energy              =  -17143.71455324 Ry
     estimated scf accuracy    <       0.76148356 Ry

     iteration #  6     ecut=    60.00 Ry     beta= 0.40
     Davidson diagonalization with overlap
     ethr =  5.67E-05,  avg # of iterations = 10.0

     total cpu time spent up to now is       75.9 secs

     total energy              =  -17143.76191367 Ry
     estimated scf accuracy    <       0.28766790 Ry

     iteration #  7     ecut=    60.00 Ry     beta= 0.40
     Davidson diagonalization with overlap
     c_bands:  2 eigenvalues not converged
     ethr =  2.14E-05,  avg # of iterations = 20.0

     total cpu time spent up to now is       87.2 secs

     total energy              =  -17143.77229237 Ry
     estimated scf accuracy    <       0.32466501 Ry

     iteration #  8     ecut=    60.00 Ry     beta= 0.40
     Davidson diagonalization with overlap
     ethr =  2.14E-05,  avg # of iterations =  2.0

     total cpu time spent up to now is       94.9 secs

     total energy              =  -17143.79151878 Ry
     estimated scf accuracy    <       0.07672877 Ry

     iteration #  9     ecut=    60.00 Ry     beta= 0.40
     Davidson diagonalization with overlap
     ethr =  5.71E-06,  avg # of iterations = 16.0

     total cpu time spent up to now is      104.8 secs

     total energy              =  -17143.79302324 Ry
     estimated scf accuracy    <       0.06681738 Ry

     iteration # 10     ecut=    60.00 Ry     beta= 0.40
     Davidson diagonalization with overlap
     ethr =  4.97E-06,  avg # of iterations =  2.0

     total cpu time spent up to now is      112.6 secs

     total energy              =  -17143.79587638 Ry
     estimated scf accuracy    <       0.02572893 Ry

     iteration # 11     ecut=    60.00 Ry     beta= 0.40
     Davidson diagonalization with overlap
     ethr =  1.91E-06,  avg # of iterations = 15.0

     total cpu time spent up to now is      122.3 secs

     total energy              =  -17143.79634039 Ry
     estimated scf accuracy    <       0.03488890 Ry

     iteration # 12     ecut=    60.00 Ry     beta= 0.40
     Davidson diagonalization with overlap
     ethr =  1.91E-06,  avg # of iterations =  2.0

     total cpu time spent up to now is      130.0 secs

     total energy              =  -17143.79804191 Ry
     estimated scf accuracy    <       0.00521285 Ry

     iteration # 13     ecut=    60.00 Ry     beta= 0.40
     Davidson diagonalization with overlap
     ethr =  3.88E-07,  avg # of iterations =  2.0

     total cpu time spent up to now is      137.7 secs

     total energy              =  -17143.79823005 Ry
     estimated scf accuracy    <       0.00221846 Ry

     iteration # 14     ecut=    60.00 Ry     beta= 0.40
     Davidson diagonalization with overlap
     ethr =  1.65E-07,  avg # of iterations =  2.0

     total cpu time spent up to now is      145.4 secs

     total energy              =  -17143.79817452 Ry
     estimated scf accuracy    <       0.00909630 Ry

     iteration # 15     ecut=    60.00 Ry     beta= 0.40
     Davidson diagonalization with overlap
     ethr =  1.65E-07,  avg # of iterations =  1.0

     total cpu time spent up to now is      152.1 secs

     total energy              =  -17143.79840821 Ry
     estimated scf accuracy    <       0.00195201 Ry

     iteration # 16     ecut=    60.00 Ry     beta= 0.40
     Davidson diagonalization with overlap
     ethr =  1.45E-07,  avg # of iterations =  2.0

     total cpu time spent up to now is      159.8 secs

     total energy              =  -17143.79844618 Ry
     estimated scf accuracy    <       0.00063960 Ry

     iteration # 17     ecut=    60.00 Ry     beta= 0.40
     Davidson diagonalization with overlap
     ethr =  4.76E-08,  avg # of iterations =  2.0

     total cpu time spent up to now is      167.4 secs

     total energy              =  -17143.79848333 Ry
     estimated scf accuracy    <       0.00017755 Ry

     iteration # 18     ecut=    60.00 Ry     beta= 0.40
     Davidson diagonalization with overlap
     ethr =  1.32E-08,  avg # of iterations =  2.0

     total cpu time spent up to now is      175.2 secs

     total energy              =  -17143.79848954 Ry
     estimated scf accuracy    <       0.00027179 Ry

     iteration # 19     ecut=    60.00 Ry     beta= 0.40
     Davidson diagonalization with overlap
     ethr =  1.32E-08,  avg # of iterations =  2.0

     total cpu time spent up to now is      182.8 secs

     total energy              =  -17143.79850047 Ry
     estimated scf accuracy    <       0.00005931 Ry

     iteration # 20     ecut=    60.00 Ry     beta= 0.40
     Davidson diagonalization with overlap
     ethr =  4.41E-09,  avg # of iterations =  2.0

     total cpu time spent up to now is      190.6 secs

     total energy              =  -17143.79850257 Ry
     estimated scf accuracy    <       0.00005155 Ry

     iteration # 21     ecut=    60.00 Ry     beta= 0.40
     Davidson diagonalization with overlap
     ethr =  3.84E-09,  avg # of iterations =  2.0

     total cpu time spent up to now is      198.2 secs

     total energy              =  -17143.79850335 Ry
     estimated scf accuracy    <       0.00006545 Ry

     iteration # 22     ecut=    60.00 Ry     beta= 0.40
     Davidson diagonalization with overlap
     ethr =  3.84E-09,  avg # of iterations =  1.0

     total cpu time spent up to now is      204.9 secs

     total energy              =  -17143.79850629 Ry
     estimated scf accuracy    <       0.00001668 Ry

     iteration # 23     ecut=    60.00 Ry     beta= 0.40
     Davidson diagonalization with overlap
     ethr =  1.24E-09,  avg # of iterations =  2.0

     total cpu time spent up to now is      212.6 secs

     total energy              =  -17143.79850694 Ry
     estimated scf accuracy    <       0.00000455 Ry

     iteration # 24     ecut=    60.00 Ry     beta= 0.40
     Davidson diagonalization with overlap
     ethr =  3.39E-10,  avg # of iterations =  2.0

     total cpu time spent up to now is      220.4 secs

     total energy              =  -17143.79850662 Ry
     estimated scf accuracy    <       0.00002229 Ry

     iteration # 25     ecut=    60.00 Ry     beta= 0.40
     Davidson diagonalization with overlap
     ethr =  3.39E-10,  avg # of iterations =  1.0

     total cpu time spent up to now is      227.1 secs

     total energy              =  -17143.79850723 Ry
     estimated scf accuracy    <       0.00001757 Ry

     iteration # 26     ecut=    60.00 Ry     beta= 0.40
     Davidson diagonalization with overlap
     ethr =  3.39E-10,  avg # of iterations =  1.0

     total cpu time spent up to now is      233.7 secs

     total energy              =  -17143.79850762 Ry
     estimated scf accuracy    <       0.00000190 Ry

     iteration # 27     ecut=    60.00 Ry     beta= 0.40
     Davidson diagonalization with overlap
     ethr =  1.42E-10,  avg # of iterations =  2.0

     total cpu time spent up to now is      241.4 secs

     total energy              =  -17143.79850772 Ry
     estimated scf accuracy    <       0.00000107 Ry

     iteration # 28     ecut=    60.00 Ry     beta= 0.40
     Davidson diagonalization with overlap
     ethr =  7.96E-11,  avg # of iterations =  2.0

     total cpu time spent up to now is      249.2 secs

     total energy              =  -17143.79850771 Ry
     estimated scf accuracy    <       0.00000221 Ry

     iteration # 29     ecut=    60.00 Ry     beta= 0.40
     Davidson diagonalization with overlap
     ethr =  7.96E-11,  avg # of iterations =  2.0

     total cpu time spent up to now is      256.9 secs

     End of self-consistent calculation

          k = 0.0000 0.0000 0.0000 (110906 PWs)   bands (ev):

   -22.6266 -22.6236 -22.6233 -22.6202 -22.6010 -22.5981 -22.5853 -22.5825
   -22.4661 -22.4637 -22.4426 -22.4276 -22.4255 -22.4253 -22.4055 -22.4051
   -22.4011 -22.3885 -22.3869 -22.3690 -22.0940 -22.0839 -22.0812 -22.0802
   -22.0746 -22.0719 -22.0710 -22.0689 -22.0668 -22.0656 -22.0637 -22.0633
   -22.0626 -22.0603 -22.0586 -22.0559 -22.0553 -22.0542 -22.0530 -22.0500
   -22.0467 -22.0461 -22.0435 -22.0401 -22.0392 -22.0379 -22.0373 -22.0363
   -22.0347 -22.0315 -22.0310 -22.0304 -22.0286 -22.0282 -22.0270 -22.0253
   -22.0251 -22.0229 -22.0217 -22.0202 -22.0190 -22.0184 -22.0173 -22.0158
   -22.0150 -22.0148 -22.0132 -22.0123 -22.0118 -22.0104 -22.0096 -22.0087
   -22.0081 -22.0070 -22.0060 -22.0056 -22.0044 -22.0037 -22.0024 -21.9996
   -21.9983 -21.9963 -21.9962 -21.9937 -21.9922 -21.9908 -21.9901 -21.9892
   -21.9869 -21.9869 -21.9854 -21.9843 -21.9832 -21.9814 -21.9811 -21.9791
   -21.9786 -21.9777 -21.9763 -21.9749 -21.9744 -21.9727 -21.9717 -21.9714
   -21.9687 -21.9676 -21.9666 -21.9660 -21.9656 -21.9642 -21.9637 -21.9627
   -21.9618 -21.9613 -21.9604 -21.9600 -21.9586 -21.9582 -21.9577 -21.9572
   -21.9555 -21.9550 -21.9540 -21.9536 -21.9532 -21.9527 -21.9520 -21.9511
   -21.9500 -21.9495 -21.9490 -21.9480 -21.9460 -21.9451 -21.9444 -21.9434
   -21.9401 -21.9398 -21.9392 -21.9372 -21.9363 -21.9359 -21.9347 -21.9344
   -21.9340 -21.9327 -21.9314 -21.9308 -21.9296 -21.9291 -21.9285 -21.9279
   -21.9271 -21.9264 -21.9260 -21.9254 -21.9248 -21.9243 -21.9239 -21.9235
   -21.9211 -21.9208 -21.9208 -21.9200 -21.9192 -21.9181 -21.9177 -21.9166
   -21.9160 -21.9152 -21.9142 -21.9136 -21.9130 -21.9124 -21.9103 -21.9091
   -21.9089 -21.9085 -21.9077 -21.9075 -21.9060 -21.9050 -21.9046 -21.9040
   -21.9032 -21.9028 -21.9016 -21.9015 -21.9008 -21.9004 -21.8997 -21.8988
   -21.8980 -21.8972 -21.8957 -21.8949 -21.8947 -21.8935 -21.8931 -21.8917
   -21.8912 -21.8904 -21.8892 -21.8883 -21.8882 -21.8863 -21.8851 -21.8840
   -21.8822 -21.8814 -21.8809 -21.8797 -21.8788 -21.8776 -21.8763 -21.8759
   -21.8749 -21.8745 -21.8740 -21.8733 -21.8723 -21.8702 -21.8683 -21.8654
   -21.8644 -21.8643 -21.8618 -21.8604 -21.8594 -21.8576 -21.8569 -21.8559
   -21.8552 -21.8547 -21.8545 -21.8539 -21.8538 -21.8522 -21.8514 -21.8511
   -21.8506 -21.8496 -21.8493 -21.8481 -21.8479 -21.8467 -21.8459 -21.8454
   -21.8446 -21.8441 -21.8430 -21.8426 -21.8424 -21.8413 -21.8401 -21.8393
   -21.8387 -21.8385 -21.8376 -21.8364 -21.8356 -21.8347 -21.8342 -21.8337
   -21.8330 -21.8318 -21.8311 -21.8295 -21.8287 -21.8267 -21.8259 -21.8258
   -21.8250 -21.8238 -21.8225 -21.8221 -21.8209 -21.8194 -21.8188 -21.8184
   -21.8174 -21.8149 -21.8145 -21.8142 -21.8140 -21.8111 -21.8097 -21.8091
   -21.8079 -21.8076 -21.8073 -21.8072 -21.8063 -21.8054 -21.8043 -21.8040
   -21.8026 -21.8011 -21.8001 -21.7997 -21.7973 -21.7969 -21.7964 -21.7946
   -21.7934 -21.7927 -21.7921 -21.7916 -21.7906 -21.7899 -21.7878 -21.7874
   -21.7846 -21.7833 -21.7824 -21.7819 -21.7812 -21.7807 -21.7793 -21.7776
   -21.7771 -21.7769 -21.7759 -21.7747 -21.7737 -21.7715 -21.7698 -21.7686
   -21.7678 -21.7675 -21.7666 -21.7652 -21.7638 -21.7627 -21.7620 -21.7615
   -21.7605 -21.7596 -21.7583 -21.7578 -21.7559 -21.7556 -21.7544 -21.7536
   -21.7532 -21.7526 -21.7515 -21.7503 -21.7490 -21.7472 -21.7465 -21.7464
   -21.7456 -21.7453 -21.7441 -21.7437 -21.7425 -21.7424 -21.7421 -21.7415
   -21.7413 -21.7403 -21.7400 -21.7385 -21.7367 -21.7354 -21.7351 -21.7348
   -21.7325 -21.7314 -21.7301 -21.7297 -21.7291 -21.7272 -21.7269 -21.7254
   -21.7235 -21.7225 -21.7221 -21.7200 -21.7189 -21.7178 -21.7175 -21.7162
   -21.7158 -21.7153 -21.7143 -21.7138 -21.7130 -21.7128 -21.7113 -21.7107
   -21.7088 -21.7076 -21.7072 -21.7055 -21.7043 -21.7039 -21.7020 -21.7007
   -21.7003 -21.6998 -21.6977 -21.6973 -21.6915 -21.6893 -21.6883 -21.6882
   -21.6863 -21.6848 -21.6803 -21.6767 -21.6759 -21.6686 -21.6682 -21.6605
   -21.6590 -21.6499 -21.6457 -21.6432 -21.6406 -21.6397 -21.6390 -21.6366
   -21.6354 -21.6339 -21.6333 -21.6321 -21.6314 -21.6257 -21.6242 -21.6234
   -21.6197 -21.6177 -21.6158 -21.6146 -21.6105 -21.6092 -21.6083 -21.6080
   -21.6069 -21.6061 -21.6056 -21.6052 -21.6023 -21.5995 -21.5984 -21.5968
   -21.5962 -21.5931 -21.5929 -21.5926 -21.5906 -21.5885 -21.5872 -21.5865
   -21.5857 -21.5845 -21.5832 -21.5821 -21.5802 -21.5791 -21.5747 -21.5736
   -21.5733 -21.5717 -21.5685 -21.5673 -21.5662 -21.5659 -21.5625 -21.5595
   -21.5590 -21.5589 -21.5561 -21.5518 -21.5513 -21.5425 -21.5370 -21.5289
    -9.2591  -8.8158  -8.7562  -8.6480  -8.3522  -8.3256  -8.2406  -8.1099
    -7.9686  -7.9480  -7.9256  -7.9039  -7.8754  -7.8622  -7.8493  -7.5350
    -7.4984  -7.4767  -7.4689  -7.4654  -7.4446  -7.4113  -7.3820  -7.3200
    -7.2993  -7.2755  -7.0538  -7.0189  -7.0001  -6.9857  -6.8792  -6.8351
    -6.8081  -6.7245  -6.5318  -6.5157  -6.4217  -6.2037  -6.0389  -6.0266
    -6.0065  -5.9633  -5.8989  -5.8517  -5.7327  -5.7201  -5.6928  -5.5563
    -5.4691  -5.3691  -5.3340  -5.2847  -5.2301  -5.1450  -5.0513  -5.0118
    -4.9671  -4.9267  -4.8247  -4.6433  -4.5349  -4.4965  -4.3890  -4.3580
    -4.1975  -4.1757  -4.1540  -4.1337  -4.0371  -4.0076  -3.9524  -3.8627
    -3.8474  -3.8056  -3.5883  -3.5449  -3.5249  -3.4043  -3.3580  -3.2672
    -3.1726  -3.0920  -3.0569  -3.0235  -2.8997  -2.8283  -2.6903  -2.5573
    -2.2625  -2.1732  -1.8992  -1.7008  -1.1403  -1.0039  -0.9883  -0.9704
    -0.9012  -0.8370  -0.8248  -0.6980  -0.6372  -0.6278  -0.6220  -0.6132
    -0.6062  -0.5588  -0.5542  -0.5290  -0.5146  -0.5058  -0.5030  -0.4805
    -0.4256  -0.4057  -0.3992  -0.3981  -0.3896  -0.2659  -0.1747  -0.1709
    -0.1203  -0.0506   0.0665   0.1065   0.1153   0.1749   0.1975   0.2347
     0.2645   0.2888   0.3386   0.3485   0.3743   0.3832   0.5172   0.5445
     0.5908   0.6063   0.6297   0.6399   0.6482   0.7014   0.7778   0.8032
     0.8140   0.8534   0.8811   0.9313   0.9946   1.0000   1.0343   1.0646
     1.0906   1.1076   1.1246   1.1507   1.1523   1.1952   1.2304   1.2837
     1.3001   1.3770   1.4025   1.4263   1.4405   1.4515   1.4731   1.5122
     1.5857   1.6258   1.6371   1.6577   1.8132   1.8236   1.8975   2.0000
     2.0432   2.0850   2.0947   2.1029   2.1330   2.2820   2.2930   2.3072
     2.3518   2.3688   2.3791   2.4133   2.4910   2.4962   2.5186   2.5419
     2.5566   2.5601   2.6058   2.6169   2.7408   2.7683   2.8861   2.9662
     3.0366   3.0650   3.0877   3.1343   3.1789   3.1962   3.2759   3.2772
     3.3151   3.3885   3.4744   3.5741   3.7489   3.7620   3.8661   3.8918
     3.9161   4.0261   4.1139   4.1655   4.2772   4.2930   4.3595   4.3727
     4.4052   4.4460   4.5416   4.5477   4.5553   4.6038   4.6279   4.6695
     4.6839   4.7131   4.7404   4.8058   4.9001   4.9112   4.9179   4.9498
     4.9620   4.9852   4.9884   5.2099   5.2239   5.2493   5.2535   5.2836
     5.3366   5.3462   5.3625   5.3673   5.5037   5.5464   5.5749   5.6063
     5.6154   5.6162   5.7115   5.7467   5.7492   5.7746   5.8178   6.0020
     6.0291   6.0588   6.0975   6.1039   6.1239   6.1553   6.1896   6.2644
     6.2735   6.2927   6.3452   6.3564   6.4792   6.4862   6.4989   6.5145
     6.5201   6.5370   6.5480   6.5685   6.5777   6.5945   6.6019   6.6061
     6.6501   6.7630   6.7767   6.7886   6.8171   6.8646   6.8992   6.9113
     6.9814   7.0096   7.0286   7.0838   7.1121   7.1311   7.1498   7.1791
     7.1997   7.2270   7.2454   7.2547   7.3411   7.3443   7.3557   7.3939
     7.4072   7.4108   7.4654   7.4752   7.4832   7.5011   7.5653   7.5917
     7.6142   7.6259   7.6589   7.7066   7.7138   7.7432

     the Fermi energy is     2.5524 ev

!    total energy              =  -17143.79850728 Ry
     estimated scf accuracy    <       0.00000073 Ry
     smearing contrib. (-TS)   =      -0.04730772 Ry
     internal energy E=F+TS    =  -17143.75119956 Ry

     The total energy is F=E-TS. E is the sum of the following terms:
     one-electron contribution =  -55234.23522213 Ry
     hartree contribution      =   28206.06709835 Ry
     xc contribution           =   -4181.91485466 Ry
     ewald contribution        =   14066.33177888 Ry

     convergence has been achieved in  29 iterations

     Forces acting on atoms (cartesian axes, Ry/au):

     atom    1 type  1   force =    -0.01511736    0.01308764   -0.00687598
     atom    2 type  1   force =     0.00696884   -0.00394946   -0.00236300
     atom    3 type  1   force =    -0.00031562   -0.02652490   -0.00176410
     atom    4 type  1   force =     0.00200006   -0.01238169    0.01158542
     atom    5 type  1   force =    -0.01044006    0.00074990   -0.00463865
     atom    6 type  1   force =    -0.00001802   -0.02004530   -0.01959850
     atom    7 type  1   force =     0.01336700    0.01907970   -0.01228325
     atom    8 type  1   force =     0.00158954    0.00761124   -0.00198832
     atom    9 type  1   force =    -0.00126659   -0.00084169    0.01245898
     atom   10 type  1   force =     0.00071426    0.01080645    0.00843005
     atom   11 type  1   force =     0.00412224   -0.00843829   -0.00351997
     atom   12 type  1   force =    -0.00235089    0.01768424   -0.00535465
     atom   13 type  1   force =    -0.00379292   -0.01132124    0.00002246
     atom   14 type  1   force =     0.00040419   -0.00292147    0.00020095
     atom   15 type  1   force =     0.00527439   -0.00202819   -0.00013035
     atom   16 type  1   force =    -0.00449373    0.00823494    0.00240579
     atom   17 type  1   force =    -0.00412777   -0.00072668   -0.00340902
     atom   18 type  1   force =    -0.01184517    0.02052203    0.00813835
     atom   19 type  1   force =     0.00047145   -0.00388693    0.00415088
     atom   20 type  1   force =     0.00208568   -0.00081664   -0.00211451
     atom   21 type  1   force =     0.00773893   -0.00536619    0.00947393
     atom   22 type  1   force =    -0.00609318    0.00767002   -0.00552308
     atom   23 type  1   force =     0.00081707   -0.00988773    0.00135257
     atom   24 type  1   force =     0.00815368    0.01172758    0.01348174
     atom   25 type  1   force =    -0.01913566    0.00961559   -0.00499949
     atom   26 type  1   force =     0.01506942    0.00182933    0.00385475
     atom   27 type  1   force =    -0.00064639   -0.02096624   -0.00776028
     atom   28 type  1   force =     0.00516855   -0.01551699    0.00273489
     atom   29 type  1   force =    -0.00762060    0.00992826    0.00720964
     atom   30 type  1   force =     0.00101600   -0.01940996   -0.01992871
     atom   31 type  1   force =     0.01513309    0.01324880   -0.00349569
     atom   32 type  1   force =    -0.00106628   -0.00783736    0.00248671
     atom   33 type  1   force =     0.00814415   -0.00800687    0.00359686
     atom   34 type  1   force =     0.00030875    0.00836695   -0.00075861
     atom   35 type  1   force =    -0.00133963    0.00370093   -0.01033618
     atom   36 type  1   force =     0.00200741    0.01596355    0.00330120
     atom   37 type  1   force =    -0.00508352   -0.01181608   -0.00608680
     atom   38 type  1   force =    -0.01308028    0.00261804   -0.00245604
     atom   39 type  1   force =     0.00464210    0.00632125    0.00350622
     atom   40 type  1   force =    -0.00308776   -0.00374117   -0.00069840
     atom   41 type  1   force =    -0.00611830   -0.00249955    0.00185388
     atom   42 type  1   force =    -0.01545296    0.01803117    0.01096382
     atom   43 type  1   force =     0.00472765   -0.00744399    0.00452834
     atom   44 type  1   force =    -0.00145827   -0.00417814    0.00641919
     atom   45 type  1   force =     0.00592192   -0.00884724    0.00696672
     atom   46 type  1   force =    -0.01046337    0.00623611   -0.00075689
     atom   47 type  1   force =     0.00584420   -0.00656060   -0.01239528
     atom   48 type  1   force =     0.00688667    0.02256633    0.00617529
     atom   49 type  1   force =    -0.01603837    0.01368970   -0.00987164
     atom   50 type  1   force =    -0.00007081    0.00836203    0.00188222
     atom   51 type  1   force =     0.00169143   -0.01984992   -0.00814047
     atom   52 type  1   force =    -0.00087617   -0.00795195    0.01429700
     atom   53 type  1   force =     0.00337885   -0.00375992   -0.00492252
     atom   54 type  1   force =    -0.00000510   -0.01451970   -0.02634075
     atom   55 type  1   force =     0.01693204    0.01115125   -0.00647847
     atom   56 type  1   force =    -0.00295189   -0.00190266    0.00549602
     atom   57 type  1   force =    -0.00344708    0.00146729    0.00716413
     atom   58 type  1   force =     0.01269022    0.00094227    0.00443276
     atom   59 type  1   force =    -0.00695164   -0.00441545    0.00390478
     atom   60 type  1   force =    -0.00323960    0.01445349    0.00214707
     atom   61 type  1   force =    -0.00945766   -0.00274953   -0.00449394
     atom   62 type  1   force =     0.00476309   -0.00462186   -0.00419652
     atom   63 type  1   force =     0.00053698   -0.00194358    0.00766487
     atom   64 type  1   force =     0.00582349    0.00032863   -0.00381345
     atom   65 type  1   force =     0.00231950   -0.00820756    0.00055112
     atom   66 type  1   force =    -0.01893318    0.02169705    0.00742577
     atom   67 type  1   force =     0.00264235   -0.00695158    0.01478528
     atom   68 type  1   force =     0.00293373    0.00746655   -0.00186704
     atom   69 type  1   force =    -0.00000325   -0.00711865    0.00426808
     atom   70 type  1   force =    -0.00477883   -0.00585425   -0.00294440
     atom   71 type  1   force =     0.00650286   -0.00012794   -0.00359935
     atom   72 type  1   force =     0.01172796    0.01769574    0.01169594
     atom   73 type  1   force =    -0.01567318    0.01341727   -0.00462120
     atom   74 type  1   force =     0.00657923   -0.00656709    0.00086458
     atom   75 type  1   force =    -0.00387952   -0.02899376   -0.00484706
     atom   76 type  1   force =    -0.00022171   -0.01485004    0.00656022
     atom   77 type  1   force =     0.00394543    0.01307069    0.00013783
     atom   78 type  1   force =    -0.00049291   -0.01736099   -0.02430158
     atom   79 type  1   force =     0.01500242    0.01584176   -0.01079199
     atom   80 type  1   force =    -0.01224000   -0.00387559   -0.00214728
     atom   81 type  1   force =    -0.00193380    0.00206458    0.00022265
     atom   82 type  1   force =     0.00330426    0.00572962   -0.00041663
     atom   83 type  1   force =    -0.00477155   -0.00515927   -0.00103631
     atom   84 type  1   force =     0.00041704    0.00680955   -0.00763940
     atom   85 type  1   force =     0.00454058    0.00381689    0.00138723
     atom   86 type  1   force =     0.00059458   -0.00100633    0.00378192
     atom   87 type  1   force =    -0.00110291   -0.00352476   -0.00224990
     atom   88 type  1   force =     0.00647972    0.00275498   -0.00119372
     atom   89 type  1   force =     0.00851228   -0.00977339    0.00716488
     atom   90 type  1   force =    -0.01778184    0.01713546    0.01399285
     atom   91 type  1   force =     0.00567706   -0.00727519    0.01156574
     atom   92 type  1   force =    -0.00018017    0.00332786   -0.00207831
     atom   93 type  1   force =     0.00278526   -0.00844912    0.00421677
     atom   94 type  1   force =     0.01036855   -0.00263246   -0.00226196
     atom   95 type  1   force =    -0.00686161   -0.00956737   -0.00331367
     atom   96 type  1   force =     0.00758093    0.01814777    0.01189500

     Total force =     0.153492     Total SCF correction =     0.005082

     BFGS Geometry Optimization
     Energy error            =      0.0E+00 Ry
     Gradient error          =      2.9E-02 Ry/Bohr

     number of scf cycles    =   1
     number of bfgs steps    =   0

     energy             new  =  -17143.7985072772 Ry

     new trust radius        =       0.0300775098 bohr
     new conv_thr            =       0.0000010000 Ry


ATOMIC_POSITIONS (angstrom)
Ge           -0.0051023687       -0.0081323764        4.9801921857
Ge           -0.0045069632        4.3273620392        7.0401771318
Ge            6.1237368780        2.8787811700        7.0406144618
Ge            2.0450784467        1.4374879176        4.9946710288
Ge            2.0501499262        2.8868766144        7.0409880941
Ge            6.1148965531        1.4488951130       17.2364426298
Ge            4.1068396677       -0.0099010836        5.0063162720
Ge            4.0687012063        4.3155534147        7.0498075424
Ge            4.0780882982       -0.0037557536        9.0671723782
Ge            4.0833864604        4.3144159012       11.1079344328
Ge            2.0354437917        2.8956814465       11.1080277977
Ge            6.1261234799        1.4340837240        9.0945212188
Ge            6.1298956373        2.8832570049       11.1326376073
Ge            2.0277437038        1.4288247131        9.0817975941
Ge           -0.0134041441       -0.0172776670        9.0794312727
Ge            0.0077818599        4.3155519966       11.1148218789
Ge            0.0140589458       -0.0162012077       13.1687398213
Ge            8.1491350678        4.3456345557       15.2137285535
Ge            6.1146130738        2.8799348309       15.2189187137
Ge            2.0354004278        1.4504382121       13.1435663027
Ge            2.0252211666        2.8759290963       15.1971304375
Ge            6.1348861260        1.4430559627       13.1637630731
Ge            4.0778646005        0.0081000288       13.1548958183
Ge            4.0748658302        4.3329858637       15.1889194387
Ge            0.0055704394        5.7937158825        5.0054238961
Ge           -0.0060278893       10.0924247145        7.0227709640
Ge            6.1064674287        8.6263992595        7.0230573798
Ge            2.0400495967        7.2199045217        5.0127512548
Ge            2.0526299893        8.6492183664        7.0248780855
Ge            6.1380930686        7.2025638452       17.2114619440
Ge            4.0994801921        5.7780008524        5.0075214566
Ge            4.0672730871       10.1118349403        7.0361870743
Ge            4.0661795416        5.7728143872        9.0789694079
Ge            4.0833218203       10.0871835225       11.1226369089
Ge            2.0421685863        8.6518375460       11.1279890402
Ge            6.1115396671        7.2111149201        9.0797563204
Ge            6.1341273541        8.6631166973       11.1311259920
Ge            2.0497092738        7.1990080695        9.0913318600
Ge           -0.0092563189        5.7565814165        9.0810017560
Ge           -0.0027854363       10.0959223435       11.1274098569
Ge            0.0134130105        5.7543365942       13.1573429322
Ge            8.1577655013       10.1234841985       15.2192231453
Ge            6.1147645172        8.6612715497       15.2114134790
Ge            2.0389862770        7.2255947056       13.1492177196
Ge            2.0377857002        8.6611013042       15.2095101581
Ge            6.1344508460        7.2270390383       13.1502644119
Ge            4.0716316697        5.7771258552       13.1714306812
Ge            4.0858945488       10.1103580636       15.2220679938
Ge            8.1443046640       -0.0102609346        4.9978335843
Ge            8.1738307668        4.3245762046        7.0460476296
Ge           14.2671469189        2.8604594999        7.0237146996
Ge           10.1928765667        1.4278853148        5.0029494223
Ge           10.1991391064        2.9027021456        7.0397221688
Ge           14.2951345315        1.4428879136       17.2412709983
Ge           12.2415840902       -0.0038288998        4.9859364642
Ge           12.2299046558        4.3394275196        7.0312020965
Ge           12.2417442706        0.0012529910        9.0779538363
Ge           12.2293841499        4.3306646989       11.1230820768
Ge           10.2001786111        2.8994137643       11.1226418269
Ge           14.2866993904        1.4413246955        9.0730880647
Ge           14.2948908283        2.8723522583       11.1255099754
Ge           10.1954216251        1.4510957727        9.0923629770
Ge            8.1670884352        0.0054629343        9.0673909071
Ge            8.1484067004        4.3352053825       11.1353393946
Ge            8.1564216104       -0.0107251259       13.1563110262
Ge            0.0033725711        4.3209771739       15.2175737900
Ge           14.2665892454        2.8764809091       15.1941217984
Ge           10.1878653250        1.4326883914       13.1649614814
Ge           10.1966677659        2.8979926497       15.2187228296
Ge           14.2956243043        1.4530880436       13.1540795621
Ge           12.2273367941       -0.0184559271       13.1733565453
Ge           12.2421026915        4.3515270198       15.2241399673
Ge            8.1376316844        5.7785330495        5.0040633487
Ge            8.1459555217       10.1060827926        7.0426819323
Ge           14.2815723964        8.6523950133        7.0279395148
Ge           10.2007511078        7.2096648187        4.9950653738
Ge           10.1855234556        8.6476393418        7.0212638854
Ge           14.2806281643        7.1962405518       17.2338777547
Ge           12.2465827602        5.7607976026        4.9916880041
Ge           12.2412731595       10.1070749319        7.0420443902
Ge           12.2517538543        5.7616506318        9.0850500703
Ge           12.2318716809       10.0949229027       11.1212059636
Ge           10.1994198410        8.6608528127       11.1092882920
Ge           14.2806110176        7.2291096107        9.0859808158
Ge           14.2641985659        8.6372523907       11.1255098370
Ge           10.2045866945        7.2000622916        9.0702229823
Ge            8.1587275372        5.7711477835        9.0967771770
Ge            8.1557317864       10.1104405656       11.1116446897
Ge            8.1452018819        5.7767478257       13.1499484716
Ge            0.0034379284       10.0892110898       15.1920516838
Ge           14.2750122244        8.6395474647       15.1980797158
Ge           10.1996228114        7.2107253409       13.1590110908
Ge           10.1869695795        8.6680582523       15.2138220188
Ge           14.2675810609        7.2243466542       13.1496432488
Ge           12.2478434254        5.7687760097       13.1710727921
Ge           12.2486876143       10.0891073857       15.2093521674



     Writing output data file ./out/ge.save/
     NEW-OLD atomic charge density approx. for the potential

     total cpu time spent up to now is      259.8 secs

     Self-consistent Calculation

     iteration #  1     ecut=    60.00 Ry     beta= 0.40
     Davidson diagonalization with overlap
     ethr =  1.00E-06,  avg # of iterations =  6.0

     total cpu time spent up to now is      279.2 secs

     total energy              =  -17143.81732307 Ry
     estimated scf accuracy    <       0.00646115 Ry

     iteration #  2     ecut=    60.00 Ry     beta= 0.40
     Davidson diagonalization with overlap
     ethr =  4.81E-07,  avg # of iterations = 11.0

     total cpu time spent up to now is      290.1 secs

     total energy              =  -17143.79330381 Ry
     estimated scf accuracy    <       1.11336356 Ry

     iteration #  3     ecut=    60.00 Ry     beta= 0.40
     Davidson diagonalization with overlap
     ethr =  4.81E-07,  avg # of iterations =  9.0

     total cpu time spent up to now is      300.4 secs

     total energy              =  -17143.81906812 Ry
     estimated scf accuracy    <       0.02881330 Ry

     iteration #  4     ecut=    60.00 Ry     beta= 0.40
     Davidson diagonalization with overlap
     ethr =  4.81E-07,  avg # of iterations =  2.0

     total cpu time spent up to now is      308.2 secs

     total energy              =  -17143.82026411 Ry
     estimated scf accuracy    <       0.00582094 Ry

     iteration #  5     ecut=    60.00 Ry     beta= 0.40
     Davidson diagonalization with overlap
     ethr =  4.33E-07,  avg # of iterations =  1.0

     total cpu time spent up to now is      314.9 secs

     total energy              =  -17143.82054788 Ry
     estimated scf accuracy    <       0.00132486 Ry

     iteration #  6     ecut=    60.00 Ry     beta= 0.40
     Davidson diagonalization with overlap
     ethr =  9.86E-08,  avg # of iterations =  2.0

     total cpu time spent up to now is      322.6 secs

     total energy              =  -17143.82056897 Ry
     estimated scf accuracy    <       0.00155680 Ry

     iteration #  7     ecut=    60.00 Ry     beta= 0.40
     Davidson diagonalization with overlap
     ethr =  9.86E-08,  avg # of iterations =  1.0

     total cpu time spent up to now is      329.3 secs

     total energy              =  -17143.82063102 Ry
     estimated scf accuracy    <       0.00035161 Ry

     iteration #  8     ecut=    60.00 Ry     beta= 0.40
     Davidson diagonalization with overlap
     ethr =  2.62E-08,  avg # of iterations =  2.0

     total cpu time spent up to now is      337.0 secs

     total energy              =  -17143.82064730 Ry
     estimated scf accuracy    <       0.00031291 Ry

     iteration #  9     ecut=    60.00 Ry     beta= 0.40
     Davidson diagonalization with overlap
     ethr =  2.33E-08,  avg # of iterations =  1.0

     total cpu time spent up to now is      343.7 secs

     total energy              =  -17143.82066767 Ry
     estimated scf accuracy    <       0.00001513 Ry

     iteration # 10     ecut=    60.00 Ry     beta= 0.40
     Davidson diagonalization with overlap
     ethr =  1.13E-09,  avg # of iterations =  2.0

     total cpu time spent up to now is      351.6 secs

     total energy              =  -17143.82066771 Ry
     estimated scf accuracy    <       0.00002572 Ry

     iteration # 11     ecut=    60.00 Ry     beta= 0.40
     Davidson diagonalization with overlap
     ethr =  1.13E-09,  avg # of iterations =  2.0

     total cpu time spent up to now is      359.3 secs

     total energy              =  -17143.82066939 Ry
     estimated scf accuracy    <       0.00000810 Ry

     iteration # 12     ecut=    60.00 Ry     beta= 0.40
     Davidson diagonalization with overlap
     ethr =  6.03E-10,  avg # of iterations =  2.0

     total cpu time spent up to now is      367.0 secs

     total energy              =  -17143.82066931 Ry
     estimated scf accuracy    <       0.00002642 Ry

     iteration # 13     ecut=    60.00 Ry     beta= 0.40
     Davidson diagonalization with overlap
     ethr =  6.03E-10,  avg # of iterations =  1.0

     total cpu time spent up to now is      373.7 secs

     total energy              =  -17143.82067012 Ry
     estimated scf accuracy    <       0.00000609 Ry

     iteration # 14     ecut=    60.00 Ry     beta= 0.40
     Davidson diagonalization with overlap
     ethr =  4.53E-10,  avg # of iterations =  2.0

     total cpu time spent up to now is      381.3 secs

     total energy              =  -17143.82067012 Ry
     estimated scf accuracy    <       0.00000589 Ry

     iteration # 15     ecut=    60.00 Ry     beta= 0.40
     Davidson diagonalization with overlap
     ethr =  4.39E-10,  avg # of iterations =  1.0

     total cpu time spent up to now is      388.0 secs

     total energy              =  -17143.82067036 Ry
     estimated scf accuracy    <       0.00000243 Ry

     iteration # 16     ecut=    60.00 Ry     beta= 0.40
     Davidson diagonalization with overlap
     ethr =  1.81E-10,  avg # of iterations =  1.0

     total cpu time spent up to now is      394.7 secs

     End of self-consistent calculation

          k = 0.0000 0.0000 0.0000 (110906 PWs)   bands (ev):

   -22.6019 -22.5995 -22.5987 -22.5962 -22.5843 -22.5812 -22.5678 -22.5649
   -22.4433 -22.4403 -22.4269 -22.4088 -22.4042 -22.4018 -22.3889 -22.3841
   -22.3800 -22.3723 -22.3711 -22.3537 -22.0916 -22.0833 -22.0798 -22.0784
   -22.0765 -22.0743 -22.0734 -22.0705 -22.0689 -22.0678 -22.0641 -22.0639
   -22.0628 -22.0612 -22.0590 -22.0563 -22.0557 -22.0544 -22.0523 -22.0495
   -22.0482 -22.0460 -22.0439 -22.0425 -22.0409 -22.0399 -22.0384 -22.0376
   -22.0357 -22.0331 -22.0328 -22.0316 -22.0302 -22.0276 -22.0269 -22.0245
   -22.0233 -22.0200 -22.0199 -22.0188 -22.0168 -22.0163 -22.0152 -22.0135
   -22.0128 -22.0120 -22.0108 -22.0104 -22.0093 -22.0088 -22.0079 -22.0071
   -22.0060 -22.0056 -22.0046 -22.0042 -22.0031 -22.0017 -22.0004 -21.9986
   -21.9967 -21.9959 -21.9948 -21.9938 -21.9915 -21.9898 -21.9889 -21.9882
   -21.9871 -21.9866 -21.9855 -21.9839 -21.9830 -21.9822 -21.9811 -21.9801
   -21.9785 -21.9776 -21.9771 -21.9760 -21.9745 -21.9732 -21.9730 -21.9717
   -21.9699 -21.9686 -21.9676 -21.9667 -21.9646 -21.9644 -21.9634 -21.9625
   -21.9623 -21.9618 -21.9608 -21.9598 -21.9594 -21.9593 -21.9575 -21.9575
   -21.9560 -21.9555 -21.9547 -21.9543 -21.9540 -21.9534 -21.9525 -21.9517
   -21.9502 -21.9500 -21.9495 -21.9480 -21.9466 -21.9453 -21.9444 -21.9415
   -21.9394 -21.9389 -21.9381 -21.9369 -21.9364 -21.9344 -21.9339 -21.9332
   -21.9319 -21.9316 -21.9303 -21.9298 -21.9290 -21.9283 -21.9282 -21.9269
   -21.9261 -21.9248 -21.9247 -21.9240 -21.9236 -21.9228 -21.9217 -21.9213
   -21.9207 -21.9203 -21.9188 -21.9185 -21.9172 -21.9168 -21.9165 -21.9152
   -21.9144 -21.9133 -21.9124 -21.9122 -21.9115 -21.9104 -21.9102 -21.9090
   -21.9085 -21.9081 -21.9074 -21.9069 -21.9050 -21.9043 -21.9038 -21.9032
   -21.9027 -21.9019 -21.9010 -21.9001 -21.8999 -21.8990 -21.8987 -21.8980
   -21.8974 -21.8965 -21.8952 -21.8949 -21.8935 -21.8932 -21.8929 -21.8918
   -21.8917 -21.8909 -21.8902 -21.8882 -21.8866 -21.8857 -21.8849 -21.8834
   -21.8820 -21.8805 -21.8803 -21.8785 -21.8784 -21.8765 -21.8761 -21.8754
   -21.8741 -21.8732 -21.8725 -21.8723 -21.8707 -21.8689 -21.8680 -21.8642
   -21.8631 -21.8630 -21.8615 -21.8597 -21.8583 -21.8581 -21.8572 -21.8562
   -21.8552 -21.8548 -21.8546 -21.8534 -21.8525 -21.8519 -21.8513 -21.8508
   -21.8502 -21.8485 -21.8478 -21.8473 -21.8465 -21.8452 -21.8443 -21.8440
   -21.8433 -21.8428 -21.8420 -21.8416 -21.8414 -21.8409 -21.8401 -21.8390
   -21.8383 -21.8374 -21.8373 -21.8358 -21.8353 -21.8336 -21.8333 -21.8328
   -21.8318 -21.8315 -21.8295 -21.8281 -21.8274 -21.8263 -21.8251 -21.8245
   -21.8242 -21.8230 -21.8226 -21.8208 -21.8206 -21.8196 -21.8175 -21.8170
   -21.8157 -21.8139 -21.8134 -21.8123 -21.8111 -21.8101 -21.8087 -21.8076
   -21.8072 -21.8070 -21.8063 -21.8054 -21.8048 -21.8038 -21.8034 -21.8028
   -21.8022 -21.7980 -21.7977 -21.7967 -21.7961 -21.7956 -21.7950 -21.7944
   -21.7926 -21.7913 -21.7907 -21.7889 -21.7886 -21.7879 -21.7870 -21.7847
   -21.7831 -21.7821 -21.7805 -21.7801 -21.7787 -21.7781 -21.7774 -21.7766
   -21.7745 -21.7743 -21.7738 -21.7711 -21.7702 -21.7698 -21.7693 -21.7683
   -21.7670 -21.7656 -21.7639 -21.7616 -21.7612 -21.7599 -21.7595 -21.7592
   -21.7589 -21.7572 -21.7557 -21.7550 -21.7541 -21.7531 -21.7525 -21.7512
   -21.7505 -21.7487 -21.7481 -21.7466 -21.7456 -21.7451 -21.7448 -21.7440
   -21.7432 -21.7424 -21.7415 -21.7410 -21.7406 -21.7403 -21.7402 -21.7396
   -21.7385 -21.7382 -21.7377 -21.7371 -21.7356 -21.7335 -21.7315 -21.7313
   -21.7297 -21.7289 -21.7265 -21.7258 -21.7247 -21.7237 -21.7216 -21.7208
   -21.7196 -21.7185 -21.7179 -21.7164 -21.7154 -21.7150 -21.7148 -21.7144
   -21.7135 -21.7111 -21.7107 -21.7098 -21.7086 -21.7079 -21.7072 -21.7064
   -21.7060 -21.7058 -21.7033 -21.7025 -21.7021 -21.7012 -21.7008 -21.6984
   -21.6959 -21.6939 -21.6934 -21.6905 -21.6887 -21.6850 -21.6832 -21.6821
   -21.6794 -21.6784 -21.6777 -21.6711 -21.6688 -21.6633 -21.6629 -21.6551
   -21.6525 -21.6503 -21.6477 -21.6465 -21.6413 -21.6394 -21.6383 -21.6365
   -21.6362 -21.6356 -21.6341 -21.6331 -21.6322 -21.6315 -21.6303 -21.6292
   -21.6281 -21.6272 -21.6259 -21.6255 -21.6244 -21.6237 -21.6192 -21.6165
   -21.6136 -21.6124 -21.6102 -21.6077 -21.6020 -21.6017 -21.5971 -21.5969
   -21.5964 -21.5934 -21.5928 -21.5914 -21.5910 -21.5903 -21.5891 -21.5883
   -21.5866 -21.5860 -21.5837 -21.5834 -21.5818 -21.5815 -21.5794 -21.5782
   -21.5777 -21.5767 -21.5762 -21.5733 -21.5730 -21.5676 -21.5648 -21.5627
   -21.5576 -21.5538 -21.5496 -21.5432 -21.5422 -21.5362 -21.5283 -21.5226
    -9.2562  -8.8138  -8.7542  -8.6383  -8.3460  -8.3237  -8.2330  -8.0988
    -7.9641  -7.9466  -7.9210  -7.9033  -7.8636  -7.8542  -7.8432  -7.5196
    -7.4931  -7.4752  -7.4662  -7.4580  -7.4373  -7.3968  -7.3789  -7.3197
    -7.3022  -7.2665  -7.0425  -7.0157  -6.9953  -6.9592  -6.8680  -6.8396
    -6.8037  -6.7146  -6.5266  -6.5083  -6.4149  -6.1949  -6.0404  -6.0112
    -5.9954  -5.9703  -5.8891  -5.8515  -5.7240  -5.7106  -5.6944  -5.5681
    -5.4728  -5.3636  -5.3337  -5.2835  -5.2216  -5.1381  -5.0469  -4.9995
    -4.9585  -4.9167  -4.8321  -4.6297  -4.5298  -4.4754  -4.3775  -4.3586
    -4.2005  -4.1630  -4.1511  -4.1398  -4.0272  -4.0104  -3.9501  -3.8686
    -3.8444  -3.8100  -3.5827  -3.5426  -3.5209  -3.3969  -3.3552  -3.2604
    -3.1751  -3.0903  -3.0586  -3.0326  -2.8779  -2.8312  -2.6930  -2.5651
    -2.2707  -2.1757  -1.9012  -1.6995  -1.1286  -1.0227  -0.9790  -0.9649
    -0.8926  -0.8389  -0.8270  -0.6892  -0.6358  -0.6210  -0.6197  -0.6040
    -0.5963  -0.5577  -0.5532  -0.5320  -0.5158  -0.5080  -0.5021  -0.4752
    -0.4240  -0.4015  -0.3955  -0.3925  -0.3850  -0.2600  -0.1727  -0.1669
    -0.1190  -0.0493   0.0693   0.1070   0.1228   0.1828   0.2051   0.2362
     0.2688   0.2916   0.3444   0.3511   0.3802   0.3894   0.5251   0.5485
     0.5979   0.6120   0.6292   0.6383   0.6579   0.7104   0.7627   0.7963
     0.8178   0.8509   0.8927   0.9358   0.9943   0.9986   1.0355   1.0618
     1.0978   1.1145   1.1294   1.1496   1.1561   1.1956   1.2306   1.2841
     1.3057   1.3812   1.4109   1.4250   1.4465   1.4688   1.4928   1.5052
     1.6116   1.6260   1.6387   1.6529   1.8045   1.8148   1.8970   1.9799
     2.0254   2.0756   2.1043   2.1076   2.1155   2.2728   2.2804   2.3021
     2.3377   2.3731   2.3756   2.4021   2.4935   2.4976   2.5009   2.5412
     2.5511   2.5636   2.5996   2.6218   2.7458   2.7736   2.8928   2.9608
     3.0455   3.0769   3.0986   3.1414   3.1894   3.1999   3.2771   3.2971
     3.3274   3.4132   3.4796   3.5748   3.7521   3.7596   3.8807   3.8955
     3.9085   4.0144   4.1188   4.1645   4.2848   4.3092   4.3588   4.3755
     4.4096   4.4447   4.5382   4.5528   4.5559   4.6109   4.6378   4.6599
     4.6901   4.7175   4.7631   4.7995   4.8997   4.9099   4.9197   4.9579
     4.9644   4.9863   4.9944   5.2055   5.2178   5.2527   5.2626   5.2832
     5.3358   5.3437   5.3581   5.3651   5.5057   5.5413   5.5733   5.6060
     5.6171   5.6233   5.7066   5.7425   5.7443   5.7664   5.8263   5.9901
     6.0310   6.0577   6.0960   6.1106   6.1170   6.1436   6.1802   6.2685
     6.2794   6.2982   6.3437   6.3594   6.4827   6.4862   6.5132   6.5151
     6.5245   6.5314   6.5391   6.5604   6.5742   6.5844   6.5957   6.6194
     6.6486   6.7661   6.7770   6.7882   6.8143   6.8724   6.8971   6.9115
     6.9748   6.9988   7.0170   7.0917   7.1096   7.1218   7.1495   7.1699
     7.2017   7.2177   7.2380   7.2520   7.3297   7.3374   7.3612   7.3935
     7.4001   7.4108   7.4611   7.4652   7.4700   7.5056   7.5656   7.5860
     7.6227   7.6310   7.6586   7.6973   7.7007   7.7468

     the Fermi energy is     2.5498 ev

!    total energy              =  -17143.82066965 Ry
     estimated scf accuracy    <       0.00000099 Ry
     smearing contrib. (-TS)   =      -0.04650178 Ry
     internal energy E=F+TS    =  -17143.77416787 Ry

     The total energy is F=E-TS. E is the sum of the following terms:
     one-electron contribution =  -55212.15841944 Ry
     hartree contribution      =   28195.04018171 Ry
     xc contribution           =   -4181.87339177 Ry
     ewald contribution        =   14055.21746162 Ry

     convergence has been achieved in  16 iterations

     Forces acting on atoms (cartesian axes, Ry/au):

     atom    1 type  1   force =    -0.01639319    0.01280471   -0.00589871
     atom    2 type  1   force =     0.00461758   -0.00217978   -0.00214263
     atom    3 type  1   force =    -0.00014276   -0.02278663   -0.00535899
     atom    4 type  1   force =     0.00141151   -0.01366071    0.01290119
     atom    5 type  1   force =    -0.00720260    0.00156924   -0.00414961
     atom    6 type  1   force =     0.00001266   -0.02141789   -0.01861758
     atom    7 type  1   force =     0.01520677    0.01727850   -0.00982331
     atom    8 type  1   force =     0.00122384    0.00555624   -0.00241049
     atom    9 type  1   force =    -0.00019786   -0.00064372    0.00917136
     atom   10 type  1   force =     0.00074479    0.00784334    0.00673559
     atom   11 type  1   force =     0.00296504   -0.00565406   -0.00300186
     atom   12 type  1   force =    -0.00193280    0.01359459   -0.00352142
     atom   13 type  1   force =    -0.00289793   -0.00798697   -0.00006330
     atom   14 type  1   force =     0.00067270   -0.00278672   -0.00059106
     atom   15 type  1   force =     0.00304016   -0.00130839    0.00025545
     atom   16 type  1   force =    -0.00358853    0.00603656    0.00207681
     atom   17 type  1   force =    -0.00327991   -0.00140783   -0.00328604
     atom   18 type  1   force =    -0.00991792    0.01774083    0.00961043
     atom   19 type  1   force =     0.00058254   -0.00280715    0.00262794
     atom   20 type  1   force =     0.00175042   -0.00091470   -0.00108237
     atom   21 type  1   force =     0.00500297   -0.00258351    0.00863871
     atom   22 type  1   force =    -0.00466300    0.00591831   -0.00386528
     atom   23 type  1   force =     0.00063672   -0.00840537    0.00088574
     atom   24 type  1   force =     0.00764013    0.01173791    0.01268335
     atom   25 type  1   force =    -0.01985538    0.00992027   -0.00415768
     atom   26 type  1   force =     0.01016153    0.00191291    0.00228695
     atom   27 type  1   force =    -0.00009926   -0.01929757   -0.00965953
     atom   28 type  1   force =     0.00408078   -0.01520740    0.00590234
     atom   29 type  1   force =    -0.00575686    0.00778582    0.00475500
     atom   30 type  1   force =     0.00098603   -0.02089316   -0.01872914
     atom   31 type  1   force =     0.01685820    0.01290264   -0.00326631
     atom   32 type  1   force =    -0.00039970   -0.00493977    0.00130627
     atom   33 type  1   force =     0.00612891   -0.00508822    0.00295977
     atom   34 type  1   force =     0.00037166    0.00647006   -0.00032040
     atom   35 type  1   force =    -0.00103086    0.00265607   -0.00762935
     atom   36 type  1   force =     0.00167901    0.01249654    0.00262123
     atom   37 type  1   force =    -0.00363547   -0.00844268   -0.00452025
     atom   38 type  1   force =    -0.00866900    0.00112764   -0.00255579
     atom   39 type  1   force =     0.00259752    0.00446554    0.00206420
     atom   40 type  1   force =    -0.00227784   -0.00208930   -0.00052610
     atom   41 type  1   force =    -0.00464675   -0.00266625    0.00134533
     atom   42 type  1   force =    -0.01241525    0.01594529    0.01180717
     atom   43 type  1   force =     0.00297407   -0.00537901    0.00304957
     atom   44 type  1   force =    -0.00100671   -0.00313911    0.00432914
     atom   45 type  1   force =     0.00401052   -0.00501634    0.00681543
     atom   46 type  1   force =    -0.00726551    0.00467473   -0.00034921
     atom   47 type  1   force =     0.00426918   -0.00602088   -0.00924488
     atom   48 type  1   force =     0.00686776    0.01944942    0.00752824
     atom   49 type  1   force =    -0.01725495    0.01308888   -0.00818402
     atom   50 type  1   force =    -0.00044242    0.00627400    0.00058523
     atom   51 type  1   force =     0.00142454   -0.01807801   -0.01002393
     atom   52 type  1   force =    -0.00059652   -0.01031939    0.01496016
     atom   53 type  1   force =     0.00199850   -0.00170829   -0.00416346
     atom   54 type  1   force =     0.00002209   -0.01694395   -0.02365406
     atom   55 type  1   force =     0.01781676    0.01128666   -0.00569277
     atom   56 type  1   force =    -0.00153691   -0.00074658    0.00322237
     atom   57 type  1   force =    -0.00177126    0.00066802    0.00493656
     atom   58 type  1   force =     0.00876123    0.00052478    0.00305268
     atom   59 type  1   force =    -0.00394142   -0.00317322    0.00203094
     atom   60 type  1   force =    -0.00231603    0.01113246    0.00184035
     atom   61 type  1   force =    -0.00676922   -0.00234455   -0.00260662
     atom   62 type  1   force =     0.00344141   -0.00380497   -0.00327395
     atom   63 type  1   force =    -0.00045462   -0.00134034    0.00545376
     atom   64 type  1   force =     0.00361522    0.00025557   -0.00281402
     atom   65 type  1   force =     0.00167610   -0.00641918    0.00038794
     atom   66 type  1   force =    -0.01494802    0.01885356    0.00846926
     atom   67 type  1   force =     0.00184540   -0.00533762    0.01058189
     atom   68 type  1   force =     0.00253919    0.00546538   -0.00103714
     atom   69 type  1   force =    -0.00017244   -0.00349297    0.00424242
     atom   70 type  1   force =    -0.00404615   -0.00348443   -0.00219107
     atom   71 type  1   force =     0.00486231   -0.00062943   -0.00310713
     atom   72 type  1   force =     0.01004876    0.01569298    0.01228099
     atom   73 type  1   force =    -0.01719909    0.01313234   -0.00415066
     atom   74 type  1   force =     0.00461760   -0.00435148   -0.00014335
     atom   75 type  1   force =    -0.00246762   -0.02456937   -0.00790102
     atom   76 type  1   force =    -0.00033374   -0.01490251    0.00922901
     atom   77 type  1   force =     0.00300796    0.01018466   -0.00018797
     atom   78 type  1   force =    -0.00044359   -0.01941583   -0.02218324
     atom   79 type  1   force =     0.01666737    0.01448822   -0.00871656
     atom   80 type  1   force =    -0.00881941   -0.00202102   -0.00191168
     atom   81 type  1   force =    -0.00107640    0.00138680    0.00046412
     atom   82 type  1   force =     0.00212168    0.00428274    0.00012069
     atom   83 type  1   force =    -0.00284399   -0.00358936   -0.00104957
     atom   84 type  1   force =     0.00030057    0.00566605   -0.00474726
     atom   85 type  1   force =     0.00352392    0.00230357    0.00081548
     atom   86 type  1   force =     0.00010416   -0.00099920    0.00221721
     atom   87 type  1   force =    -0.00134013   -0.00224155   -0.00183538
     atom   88 type  1   force =     0.00403672    0.00129851   -0.00054256
     atom   89 type  1   force =     0.00580015   -0.00767681    0.00521580
     atom   90 type  1   force =    -0.01370796    0.01536599    0.01373576
     atom   91 type  1   force =     0.00377440   -0.00553164    0.00844988
     atom   92 type  1   force =    -0.00011737    0.00267376   -0.00141009
     atom   93 type  1   force =     0.00166419   -0.00485747    0.00402596
     atom   94 type  1   force =     0.00735905   -0.00185534   -0.00158562
     atom   95 type  1   force =    -0.00475630   -0.00766624   -0.00279677
     atom   96 type  1   force =     0.00710840    0.01631174    0.01200553

     Total force =     0.137333     Total SCF correction =     0.005693
     Energy error            =      2.2E-02 Ry
     Gradient error          =      2.5E-02 Ry/Bohr

     number of scf cycles    =   2
     number of bfgs steps    =   1

     energy             old  =  -17143.7985072772 Ry
     energy             new  =  -17143.8206696540 Ry

     CASE: energy            _new < energy            _old


     WARNING: bfgs curvature condition failed, Theta= 0.908
     new trust radius        =       0.0330852608 bohr
     new conv_thr            =       0.0000002457 Ry


ATOMIC_POSITIONS (angstrom)
Ge           -0.0146355409       -0.0005056363        4.9765593946
Ge           -0.0014395381        4.3258210131        7.0388765444
Ge            6.1236279226        2.8647529501        7.0379460542
Ge            2.0459977465        1.4295742007        5.0021295445
Ge            2.0454259231        2.8876908852        7.0384604832
Ge            6.1148997314        1.4363984251       17.2252733333
Ge            4.1155903746        0.0005904479        5.0001491042
Ge            4.0694778939        4.3191352354        7.0484388335
Ge            4.0778203910       -0.0041650708        9.0730699537
Ge            4.0838234465        4.3194808663       11.1121641912
Ge            2.0373637364        2.8919388606       11.1061761344
Ge            6.1249193445        1.4427151554        9.0921763066
Ge            6.1280524210        2.8780546121       11.1326121940
Ge            2.0281044265        1.4271545724        9.0815590478
Ge           -0.0112878460       -0.0181543758        9.0795282368
Ge            0.0055280222        4.3194386229       11.1160987783
Ge            0.0119960508       -0.0169393232       13.1667754891
Ge            8.1429869415        4.3565381859       15.2192152375
Ge            6.1149425674        2.8781193493       15.2206904897
Ge            2.0364848243        1.4499100751       13.1427794804
Ge            2.0285711748        2.8740060449       15.2023666663
Ge            6.1319216460        1.4468095531       13.1612391523
Ge            4.0782672877        0.0029108211       13.1554864369
Ge            4.0794650468        4.3399391768       15.1965469431
Ge           -0.0060924962        5.7995507345        5.0028417675
Ge            0.0006847987       10.0935463379        7.0243470254
Ge            6.1063314808        8.6147301037        7.0176018266
Ge            2.0426208358        7.2108504182        5.0158018629
Ge            2.0489562679        8.6541335519        7.0280415073
Ge            6.1386815196        7.1903936552       17.2001957220
Ge            4.1092255432        5.7856945305        5.0055538135
Ge            4.0669422856       10.1084995905        7.0371274690
Ge            4.0700950638        5.7693881135        9.0808129065
Ge            4.0835331638       10.0912844924       11.1223852883
Ge            2.0415142642        8.6535585893       11.1230869948
Ge            6.1125807861        7.2190079684        9.0814052762
Ge            6.1317691678        8.6576387757       11.1282268640
Ge            2.0439509321        7.1998863208        9.0898316071
Ge           -0.0074290228        5.7594888950        9.0824281042
Ge           -0.0042492537       10.0944515384       11.1270738461
Ge            0.0104523250        5.7527803284       13.1582117442
Ge            8.1499811423       10.1332259352       15.2261000529
Ge            6.1167738921        8.6577933308       15.2134288445
Ge            2.0383261332        7.2235882823       13.1520774158
Ge            2.0404314284        8.6575890050       15.2135696624
Ge            6.1296951509        7.2300289663       13.1500000280
Ge            4.0743832314        5.7734823641       13.1655088920
Ge            4.0899663948       10.1223213684       15.2263377675
Ge            8.1342525439       -0.0024210053        4.9927465899
Ge            8.1736210204        4.3285879586        7.0465772353
Ge           14.2680285945        2.8494983827        7.0180410102
Ge           10.1924837002        1.4221047982        5.0117198927
Ge           10.2005178333        2.9014007313        7.0371482858
Ge           14.2951437867        1.4331903203       17.2268770755
Ge           12.2520158759        0.0028394072        4.9824527017
Ge           12.2287945393        4.3388221818        7.0334319115
Ge           12.2404585264        0.0017614806        9.0811928221
Ge           12.2351291404        4.3310344941       11.1250853714
Ge           10.1974189106        2.8973584816       11.1241093467
Ge           14.2851969232        1.4483889431        9.0742217255
Ge           14.2905010098        2.8709060050       11.1236994598
Ge           10.1976470111        1.4487261412        9.0902930775
Ge            8.1669588686        0.0045837311        9.0709340129
Ge            8.1508600656        4.3353671114       11.1335311722
Ge            8.1575054150       -0.0147806508       13.1565638896
Ge           -0.0060460438        4.3325488830       15.2224447527
Ge           14.2677950093        2.8730908037       15.2009842272
Ge           10.1894254295        1.4362087841       13.1642299696
Ge           10.1965894466        2.8954118881       15.2212401001
Ge           14.2931236460        1.4506893956       13.1526751350
Ge           12.2304490259       -0.0187581673       13.1714461601
Ge           12.2482933669        4.3611075405       15.2313340290
Ge            8.1276562685        5.7863541940        5.0015377230
Ge            8.1489680271       10.1031921577        7.0427391004
Ge           14.2799112673        8.6372137811        7.0236886801
Ge           10.2005691592        7.2008424086        5.0001573504
Ge           10.1874378553        8.6540806826        7.0211984459
Ge           14.2803583800        7.1850262771       17.2204354286
Ge           12.2562235258        5.7695727669        4.9862308002
Ge           12.2355653737       10.1056160035        7.0408784964
Ge           12.2509952049        5.7625678728        9.0852910202
Ge           12.2332955078       10.0976644317       11.1212017186
Ge           10.1974630072        8.6585047678       11.1086682874
Ge           14.2808055283        7.2326279869        9.0827602996
Ge           14.2664298357        8.6388306210       11.1260736184
Ge           10.2047175501        7.1994692567        9.0717572878
Ge            8.1579669488        5.7696387430        9.0956312633
Ge            8.1584679838       10.1114152798       11.1112314176
Ge            8.1490208644        5.7719036983       13.1533136455
Ge           -0.0052584508       10.0985649759       15.2002264339
Ge           14.2775168190        8.6360241306       15.2035255933
Ge           10.1995444172        7.2124017735       13.1580813968
Ge           10.1881136733        8.6646738163       15.2162343203
Ge           14.2723656210        7.2231377952       13.1486084099
Ge           12.2447284787        5.7639656976       13.1693428185
Ge           12.2529659953       10.0990310198       15.2164499194



     Writing output data file ./out/ge.save/
     NEW-OLD atomic charge density approx. for the potential

     negative rho (up, down):  1.522E-08 0.000E+00

     total cpu time spent up to now is      397.5 secs

     Self-consistent Calculation

     iteration #  1     ecut=    60.00 Ry     beta= 0.40
     Davidson diagonalization with overlap
     ethr =  1.00E-06,  avg # of iterations =  6.0

     total cpu time spent up to now is      417.0 secs

     total energy              =  -17143.83695219 Ry
     estimated scf accuracy    <       0.00827339 Ry

     iteration #  2     ecut=    60.00 Ry     beta= 0.40
     Davidson diagonalization with overlap
     ethr =  6.16E-07,  avg # of iterations =  9.0

     total cpu time spent up to now is      427.8 secs

     total energy              =  -17143.80435165 Ry
     estimated scf accuracy    <       1.52033269 Ry

     iteration #  3     ecut=    60.00 Ry     beta= 0.40
     Davidson diagonalization with overlap
     ethr =  6.16E-07,  avg # of iterations = 10.0

     total cpu time spent up to now is      438.6 secs

     total energy              =  -17143.83947598 Ry
     estimated scf accuracy    <       0.02953329 Ry

     iteration #  4     ecut=    60.00 Ry     beta= 0.40
     Davidson diagonalization with overlap
     ethr =  6.16E-07,  avg # of iterations =  2.0

     total cpu time spent up to now is      446.4 secs

     total energy              =  -17143.84059679 Ry
     estimated scf accuracy    <       0.01389420 Ry

     iteration #  5     ecut=    60.00 Ry     beta= 0.40
     Davidson diagonalization with overlap
     ethr =  6.16E-07,  avg # of iterations =  1.0

     total cpu time spent up to now is      453.1 secs

     total energy              =  -17143.84122465 Ry
     estimated scf accuracy    <       0.00070327 Ry

     iteration #  6     ecut=    60.00 Ry     beta= 0.40
     Davidson diagonalization with overlap
     ethr =  5.23E-08,  avg # of iterations =  2.0

     total cpu time spent up to now is      460.9 secs

     total energy              =  -17143.84123452 Ry
     estimated scf accuracy    <       0.00063017 Ry

     iteration #  7     ecut=    60.00 Ry     beta= 0.40
     Davidson diagonalization with overlap
     ethr =  4.69E-08,  avg # of iterations =  1.0

     total cpu time spent up to now is      467.6 secs

     total energy              =  -17143.84127451 Ry
     estimated scf accuracy    <       0.00028641 Ry

     iteration #  8     ecut=    60.00 Ry     beta= 0.40
     Davidson diagonalization with overlap
     ethr =  2.13E-08,  avg # of iterations =  1.0

     total cpu time spent up to now is      474.2 secs

     total energy              =  -17143.84128664 Ry
     estimated scf accuracy    <       0.00012253 Ry

     iteration #  9     ecut=    60.00 Ry     beta= 0.40
     Davidson diagonalization with overlap
     ethr =  9.12E-09,  avg # of iterations =  2.0

     total cpu time spent up to now is      481.9 secs

     total energy              =  -17143.84129634 Ry
     estimated scf accuracy    <       0.00005800 Ry

     iteration # 10     ecut=    60.00 Ry     beta= 0.40
     Davidson diagonalization with overlap
     ethr =  4.32E-09,  avg # of iterations =  2.0

     total cpu time spent up to now is      489.6 secs

     total energy              =  -17143.84129841 Ry
     estimated scf accuracy    <       0.00002666 Ry

     iteration # 11     ecut=    60.00 Ry     beta= 0.40
     Davidson diagonalization with overlap
     ethr =  1.98E-09,  avg # of iterations =  1.0

     total cpu time spent up to now is      496.3 secs

     total energy              =  -17143.84130019 Ry
     estimated scf accuracy    <       0.00000696 Ry

     iteration # 12     ecut=    60.00 Ry     beta= 0.40
     Davidson diagonalization with overlap
     ethr =  5.18E-10,  avg # of iterations =  2.0

     total cpu time spent up to now is      504.0 secs

     total energy              =  -17143.84130018 Ry
     estimated scf accuracy    <       0.00002310 Ry

     iteration # 13     ecut=    60.00 Ry     beta= 0.40
     Davidson diagonalization with overlap
     ethr =  5.18E-10,  avg # of iterations =  1.0

     total cpu time spent up to now is      510.7 secs

     total energy              =  -17143.84130089 Ry
     estimated scf accuracy    <       0.00000460 Ry

     iteration # 14     ecut=    60.00 Ry     beta= 0.40
     Davidson diagonalization with overlap
     ethr =  3.42E-10,  avg # of iterations =  2.0

     total cpu time spent up to now is      518.3 secs

     total energy              =  -17143.84130072 Ry
     estimated scf accuracy    <       0.00000912 Ry

     iteration # 15     ecut=    60.00 Ry     beta= 0.40
     Davidson diagonalization with overlap
     ethr =  3.42E-10,  avg # of iterations =  1.0

     total cpu time spent up to now is      525.0 secs

     total energy              =  -17143.84130112 Ry
     estimated scf accuracy    <       0.00000145 Ry

     iteration # 16     ecut=    60.00 Ry     beta= 0.40
     Davidson diagonalization with overlap
     ethr =  1.08E-10,  avg # of iterations =  1.0

     total cpu time spent up to now is      531.7 secs

     total energy              =  -17143.84130118 Ry
     estimated scf accuracy    <       0.00000029 Ry

     iteration # 17     ecut=    60.00 Ry     beta= 0.40
     Davidson diagonalization with overlap
     ethr =  2.14E-11,  avg # of iterations =  2.0

     total cpu time spent up to now is      539.5 secs

     total energy              =  -17143.84130118 Ry
     estimated scf accuracy    <       0.00000063 Ry

     iteration # 18     ecut=    60.00 Ry     beta= 0.40
     Davidson diagonalization with overlap
     ethr =  2.14E-11,  avg # of iterations =  2.0

     total cpu time spent up to now is      547.2 secs

     End of self-consistent calculation

          k = 0.0000 0.0000 0.0000 (110906 PWs)   bands (ev):

   -22.5758 -22.5740 -22.5723 -22.5707 -22.5660 -22.5629 -22.5492 -22.5462
   -22.4190 -22.4154 -22.4097 -22.3912 -22.3794 -22.3768 -22.3712 -22.3615
   -22.3574 -22.3556 -22.3534 -22.3371 -22.0890 -22.0829 -22.0784 -22.0778
   -22.0768 -22.0763 -22.0748 -22.0728 -22.0706 -22.0696 -22.0671 -22.0633
   -22.0620 -22.0607 -22.0598 -22.0565 -22.0553 -22.0540 -22.0508 -22.0489
   -22.0480 -22.0460 -22.0444 -22.0435 -22.0425 -22.0400 -22.0393 -22.0377
   -22.0368 -22.0348 -22.0343 -22.0328 -22.0314 -22.0289 -22.0286 -22.0244
   -22.0195 -22.0175 -22.0172 -22.0157 -22.0148 -22.0138 -22.0129 -22.0118
   -22.0109 -22.0101 -22.0092 -22.0082 -22.0074 -22.0071 -22.0052 -22.0050
   -22.0036 -22.0033 -22.0024 -22.0019 -22.0012 -21.9994 -21.9983 -21.9981
   -21.9951 -21.9943 -21.9940 -21.9917 -21.9903 -21.9890 -21.9881 -21.9875
   -21.9865 -21.9859 -21.9851 -21.9845 -21.9832 -21.9818 -21.9811 -21.9806
   -21.9800 -21.9791 -21.9783 -21.9768 -21.9752 -21.9746 -21.9742 -21.9713
   -21.9699 -21.9690 -21.9683 -21.9671 -21.9648 -21.9642 -21.9632 -21.9624
   -21.9615 -21.9611 -21.9607 -21.9598 -21.9592 -21.9583 -21.9575 -21.9564
   -21.9560 -21.9553 -21.9547 -21.9542 -21.9537 -21.9533 -21.9519 -21.9517
   -21.9502 -21.9499 -21.9493 -21.9488 -21.9463 -21.9450 -21.9432 -21.9395
   -21.9387 -21.9382 -21.9373 -21.9364 -21.9354 -21.9339 -21.9329 -21.9324
   -21.9320 -21.9311 -21.9297 -21.9290 -21.9284 -21.9281 -21.9263 -21.9261
   -21.9252 -21.9238 -21.9224 -21.9222 -21.9218 -21.9213 -21.9201 -21.9199
   -21.9193 -21.9187 -21.9181 -21.9172 -21.9156 -21.9141 -21.9137 -21.9129
   -21.9125 -21.9117 -21.9109 -21.9104 -21.9102 -21.9100 -21.9092 -21.9091
   -21.9081 -21.9070 -21.9066 -21.9064 -21.9053 -21.9037 -21.9032 -21.9016
   -21.9011 -21.9003 -21.8993 -21.8986 -21.8980 -21.8976 -21.8968 -21.8964
   -21.8957 -21.8956 -21.8949 -21.8947 -21.8942 -21.8934 -21.8926 -21.8912
   -21.8905 -21.8891 -21.8888 -21.8871 -21.8856 -21.8851 -21.8842 -21.8831
[...]
    -7.8848  -7.8815  -7.8788  -7.8205  -7.7877  -7.7157  -7.5593  -7.4782
    -7.3806  -7.3594  -7.3528  -7.3346  -7.3054  -7.3045  -7.2154  -7.1678
    -7.1194  -7.0818  -7.0148  -6.8846  -6.8306  -6.7456  -6.7433  -6.6647
    -6.6493  -6.5635  -6.4493  -6.3878  -6.2762  -6.1990  -6.0286  -5.9159
    -5.9044  -5.8998  -5.8888  -5.8093  -5.7519  -5.6983  -5.5598  -5.4864
    -5.4730  -5.4695  -5.3889  -5.2504  -5.1808  -5.0765  -4.9707  -4.8682
    -4.8462  -4.7649  -4.6965  -4.4682  -4.3275  -4.3247  -4.2118  -4.2067
    -4.1935  -4.1775  -4.1042  -3.9875  -3.9244  -3.9139  -3.8910  -3.8112
    -3.7853  -3.7026  -3.5777  -3.5514  -3.5371  -3.3722  -3.3609  -3.1940
    -3.1174  -2.9574  -2.9066  -2.8996  -2.8741  -2.6849  -2.6673  -2.6519
    -2.4455  -2.3440  -2.0572  -1.7826  -1.6489  -1.2166  -1.0571  -0.9048
    -0.8610  -0.7943  -0.7652  -0.7582  -0.6131  -0.6066  -0.5536  -0.5401
    -0.5385  -0.4864  -0.4857  -0.4670  -0.4143  -0.3982  -0.3925  -0.3894
    -0.3748  -0.3230  -0.3156  -0.2223  -0.2207  -0.2128  -0.1398  -0.1374
    -0.1083  -0.0770  -0.0437  -0.0025   0.1267   0.1541   0.1770   0.2932
     0.3363   0.3577   0.3816   0.3986   0.4935   0.5148   0.5494   0.5629
     0.6198   0.6693   0.6824   0.7286   0.7672   0.7784   0.7788   0.7947
     0.9152   0.9367   0.9448   0.9808   1.0002   1.0112   1.0181   1.0749
     1.1417   1.1835   1.2034   1.2212   1.2405   1.2903   1.3139   1.3168
     1.3541   1.3789   1.3888   1.4222   1.5588   1.5612   1.5794   1.5967
     1.6018   1.6079   1.6250   1.6416   1.6969   1.7075   1.7684   1.7716
     1.8195   1.8600   1.8926   1.9382   2.0119   2.0487   2.0850   2.1658
     2.1834   2.2231   2.2451   2.2648   2.3919   2.4137   2.4323   2.6163
     2.6473   2.6816   2.7780   2.8760   2.8921   2.9308   3.0307   3.2187
     3.3698   3.4294   3.5165   3.5680   3.5818   3.5866   3.6079   3.6678
     3.6873   3.6938   3.7242   3.8698   3.8824   4.0183   4.0396   4.0698
     4.1813   4.1855   4.2130   4.2310   4.3258   4.3583   4.4158   4.4261
     4.4346   4.4364   4.5820   4.6443   4.6851   4.7524   4.7715   4.7835
     4.8526   4.8871   4.9989   5.0232   5.0375   5.0589   5.0606   5.1114
     5.1137   5.1174   5.1880   5.2081   5.2465   5.2704   5.2814   5.2963
     5.3165   5.3932   5.3939   5.4065   5.4682   5.5410   5.5818   5.6016
     5.6049   5.6496   5.7117   5.7204   5.7479   5.7992   5.8326   5.8405
     5.8568   5.9302   6.0227   6.0720   6.1104   6.2632   6.2736   6.2939
     6.2991   6.3006   6.3176   6.3455   6.3861   6.4435   6.4517   6.4840
     6.5003   6.5275   6.5533   6.5944   6.6043   6.6459   6.6712   6.6833
     6.6854   6.7253   6.7811   6.8387   6.8471   6.8478   6.8526   6.8686
     6.9136   6.9414   6.9511   7.0143   7.0234   7.0521   7.0732   7.1231
     7.1397   7.1652   7.1783   7.1848   7.2369   7.3112   7.3307   7.3563
     7.3894   7.3918   7.3990   7.4491   7.4527   7.4998   7.5137   7.5462
     7.5781   7.6158   7.6293   7.6341   7.6467   7.6567

     the Fermi energy is     2.6077 ev

!    total energy              =  -17144.60904702 Ry
     estimated scf accuracy    <          6.9E-09 Ry
     smearing contrib. (-TS)   =      -0.01867073 Ry
     internal energy E=F+TS    =  -17144.59037630 Ry

     The total energy is F=E-TS. E is the sum of the following terms:
     one-electron contribution =  -57004.13109008 Ry
     hartree contribution      =   29093.44852688 Ry
     xc contribution           =   -4181.92403394 Ry
     ewald contribution        =   14948.01622084 Ry

     convergence has been achieved in  12 iterations

     Forces acting on atoms (cartesian axes, Ry/au):

     atom    1 type  1   force =    -0.00039099   -0.00014547   -0.00027554
     atom    2 type  1   force =    -0.00010033   -0.00004804    0.00046266
     atom    3 type  1   force =    -0.00002223   -0.00017223   -0.00027320
     atom    4 type  1   force =     0.00007301    0.00055659   -0.00007017
     atom    5 type  1   force =    -0.00014001   -0.00009655    0.00002631
     atom    6 type  1   force =    -0.00030083    0.00057781    0.00043778
     atom    7 type  1   force =     0.00024259   -0.00022986   -0.00038871
     atom    8 type  1   force =     0.00021305   -0.00000323    0.00058180
     atom    9 type  1   force =    -0.00005995   -0.00000137   -0.00044111
     atom   10 type  1   force =     0.00030665    0.00033385    0.00057941
     atom   11 type  1   force =     0.00019705    0.00003073   -0.00002987
     atom   12 type  1   force =    -0.00015565    0.00054148    0.00023137
     atom   13 type  1   force =    -0.00030255   -0.00046441   -0.00000303
     atom   14 type  1   force =     0.00011499   -0.00016112    0.00031218
     atom   15 type  1   force =     0.00012997   -0.00009854   -0.00078102
     atom   16 type  1   force =    -0.00023429    0.00040981    0.00012064
     atom   17 type  1   force =    -0.00012560   -0.00039796   -0.00042152
     atom   18 type  1   force =    -0.00029770   -0.00024097    0.00042388
     atom   19 type  1   force =    -0.00045493    0.00003287    0.00046483
     atom   20 type  1   force =     0.00024302    0.00024953    0.00044249
     atom   21 type  1   force =     0.00034636    0.00035973   -0.00067439
     atom   22 type  1   force =    -0.00019594    0.00037713   -0.00000218
     atom   23 type  1   force =     0.00013673   -0.00023355   -0.00009587
     atom   24 type  1   force =     0.00066999   -0.00044287    0.00075655
     atom   25 type  1   force =    -0.00011479   -0.00007635   -0.00025095
     atom   26 type  1   force =    -0.00030597   -0.00003768    0.00029886
     atom   27 type  1   force =     0.00009169    0.00006423   -0.00061710
     atom   28 type  1   force =     0.00017439    0.00032536   -0.00040104
     atom   29 type  1   force =     0.00005331    0.00002210    0.00028219
     atom   30 type  1   force =    -0.00023043    0.00005238    0.00008963
     atom   31 type  1   force =    -0.00024786    0.00001340   -0.00049873
     atom   32 type  1   force =    -0.00005417   -0.00004559    0.00007666
     atom   33 type  1   force =     0.00005188   -0.00022482   -0.00090318
     atom   34 type  1   force =     0.00012225    0.00025743    0.00004058
     atom   35 type  1   force =    -0.00007138    0.00026064   -0.00019201
     atom   36 type  1   force =    -0.00003425    0.00028177    0.00085702
     atom   37 type  1   force =    -0.00025145   -0.00032632   -0.00060905
     atom   38 type  1   force =    -0.00013070    0.00005840    0.00040227
     atom   39 type  1   force =    -0.00019715    0.00012125   -0.00074103
     atom   40 type  1   force =     0.00009332    0.00007182    0.00000235
     atom   41 type  1   force =    -0.00045173   -0.00040598   -0.00006094
     atom   42 type  1   force =    -0.00028989   -0.00022568    0.00041200
     atom   43 type  1   force =    -0.00026747   -0.00074589    0.00021101
     atom   44 type  1   force =     0.00012710    0.00010253    0.00049659
     atom   45 type  1   force =     0.00052084    0.00015367   -0.00079495
     atom   46 type  1   force =    -0.00058119    0.00025525    0.00031090
     atom   47 type  1   force =     0.00032699   -0.00036738   -0.00054217
     atom   48 type  1   force =     0.00038536    0.00003379    0.00047748
     atom   49 type  1   force =    -0.00015078   -0.00010468   -0.00033026
     atom   50 type  1   force =    -0.00011405   -0.00001686    0.00035487
     atom   51 type  1   force =    -0.00010278   -0.00021838   -0.00050420
     atom   52 type  1   force =    -0.00002264    0.00043894   -0.00012881
     atom   53 type  1   force =     0.00024870   -0.00010385    0.00001210
     atom   54 type  1   force =    -0.00021490    0.00027828    0.00038875
     atom   55 type  1   force =     0.00012859    0.00005429   -0.00031787
     atom   56 type  1   force =     0.00003265   -0.00006379    0.00052765
     atom   57 type  1   force =    -0.00005918    0.00011197   -0.00057209
     atom   58 type  1   force =     0.00022113    0.00003205    0.00036645
     atom   59 type  1   force =    -0.00003887    0.00015270    0.00023491
     atom   60 type  1   force =    -0.00028742    0.00067125    0.00050717
     atom   61 type  1   force =    -0.00003109   -0.00011369   -0.00092132
     atom   62 type  1   force =     0.00014527   -0.00023657    0.00042473
     atom   63 type  1   force =     0.00013825   -0.00001375   -0.00088541
     atom   64 type  1   force =    -0.00011331    0.00015600   -0.00015707
     atom   65 type  1   force =     0.00013592   -0.00009460   -0.00024833
     atom   66 type  1   force =    -0.00022133   -0.00010007    0.00029169
     atom   67 type  1   force =    -0.00010677   -0.00026087    0.00041099
     atom   68 type  1   force =    -0.00004040   -0.00001184    0.00028382
     atom   69 type  1   force =     0.00018185    0.00056306   -0.00072619
     atom   70 type  1   force =    -0.00011998   -0.00001895    0.00050422
     atom   71 type  1   force =     0.00007567   -0.00046345   -0.00006926
     atom   72 type  1   force =     0.00040379    0.00001704    0.00067371
     atom   73 type  1   force =    -0.00012065   -0.00008703   -0.00043691
     atom   74 type  1   force =     0.00007730   -0.00016953    0.00034796
     atom   75 type  1   force =     0.00016964   -0.00008228   -0.00036317
     atom   76 type  1   force =     0.00017389    0.00042934   -0.00012036
     atom   77 type  1   force =    -0.00021371   -0.00006570    0.00030344
     atom   78 type  1   force =    -0.00026063    0.00017419    0.00012589
     atom   79 type  1   force =     0.00001752   -0.00010808   -0.00031358
     atom   80 type  1   force =     0.00016910   -0.00017822    0.00042699
     atom   81 type  1   force =     0.00017686   -0.00003507   -0.00091476
     atom   82 type  1   force =     0.00012314    0.00042909   -0.00002310
     atom   83 type  1   force =     0.00019992    0.00006070    0.00005378
     atom   84 type  1   force =     0.00015459    0.00016445    0.00007339
     atom   85 type  1   force =    -0.00005936   -0.00026734   -0.00017955
     atom   86 type  1   force =    -0.00011990    0.00009696    0.00021417
     atom   87 type  1   force =     0.00003737   -0.00007416   -0.00059532
     atom   88 type  1   force =    -0.00007846    0.00018157    0.00024700
     atom   89 type  1   force =     0.00025709   -0.00061362    0.00019122
     atom   90 type  1   force =    -0.00077745   -0.00032698    0.00053872
     atom   91 type  1   force =    -0.00002182   -0.00041652    0.00035458
     atom   92 type  1   force =    -0.00026570   -0.00000553    0.00019533
     atom   93 type  1   force =     0.00026591    0.00042561   -0.00072574
     atom   94 type  1   force =     0.00058983    0.00028898    0.00026394
     atom   95 type  1   force =     0.00004653   -0.00077087   -0.00004904
     atom   96 type  1   force =     0.00075956   -0.00005591    0.00053517

     Total force =     0.005673     Total SCF correction =     0.000531
     Energy error            =      6.3E-05 Ry
     Gradient error          =      9.2E-04 Ry/Bohr

     bfgs converged in  47 scf cycles and  46 bfgs steps
     (criteria: energy <  1.0E-04 Ry, force <  1.0E-03 Ry/Bohr)

     End of BFGS Geometry Optimization

     Final energy             =  -17144.6090470232 Ry

     File ./out/ge.bfgs deleted, as requested
Begin final coordinates

ATOMIC_POSITIONS (angstrom)
Ge           -0.4040153565        0.6122490232        5.2635083026
Ge           -0.1261311778        4.4156890143        6.9052605243
Ge            6.1197170295        2.4747132083        6.7489995785
Ge            2.0445547034        1.0027838228        5.6582691886
Ge            2.0415440450        3.0868619153        6.9985601991
Ge            6.1210901956        0.2752348120       16.7557479618
Ge            4.4953858104        0.6135107612        5.2667106956
Ge            4.2080484961        4.4172114130        6.9092178227
Ge            4.1079906263       -0.0176706737        9.0493403078
Ge            4.0329699225        4.3421435885       11.0966499023
Ge            2.0381859089        2.8188956910       11.1208706114
Ge            6.1201469393        1.4707448911        9.0337024948
Ge            6.1206233974        2.9209071494       11.0515715856
Ge            2.0390516419        1.4497592284        8.9914662269
Ge           -0.0285358228       -0.0193648433        9.0472169586
Ge            0.0445335102        4.3417825779       11.0959504625
Ge           -0.0066159703       -0.0533160139       13.1741016184
Ge            7.8317618144        4.4489998715       15.3656019389
Ge            6.1204362818        2.5145646108       15.2469983966
Ge            2.0373438463        1.4930148943       13.2760188344
Ge            2.0341209886        3.4597460112       15.0305750157
Ge            6.1194821600        1.4489208638       13.0423467620
Ge            4.0831337938       -0.0542525716       13.1743366165
Ge            4.4027700863        4.4476824771       15.3653807315
Ge           -0.4038681267        6.3822068344        5.2626932912
Ge           -0.1252586914       10.1852559366        6.9063220466
Ge            6.1193831693        8.2460370449        6.7500132393
Ge            2.0458704895        6.7725463719        5.6594653012
Ge            2.0421199227        8.8567908963        6.9984217600
Ge            6.1204472593        6.0520770603       16.7572723108
Ge            4.4990657216        6.3827835104        5.2685411203
Ge            4.2089876047       10.1874332956        6.9100996857
Ge            4.1082203538        5.7535645084        9.0492540340
Ge            4.0335317149       10.1114407659       11.0984912582
Ge            2.0386382174        8.5882466332       11.1227760431
Ge            6.1200387130        7.2422280656        9.0325591805
Ge            6.1204817412        8.6898757349       11.0531963774
Ge            2.0399173105        7.2198455740        8.9918287699
Ge           -0.0282302353        5.7511411197        9.0460016849
Ge            0.0440892533       10.1125791291       11.0980220085
Ge           -0.0061973778        5.7157905665       13.1726206060
Ge            7.8335702219       10.2177502819       15.3661757474
Ge            6.1200056817        8.2883504168       15.2468726571
Ge            2.0376831596        7.2627179510       13.2777191490
Ge            2.0348148794        9.2226544969       15.0417097326
Ge            6.1206179190        7.2198713198       13.0431073733
Ge            4.0834910438        5.7161785211       13.1746576573
Ge            4.4018815970       10.2153593849       15.3658943732
Ge            7.7468153888        0.6142639871        5.2658201920
Ge            8.0308510068        4.4166111665        6.9073418023
Ge           14.2815609550        2.4739144140        6.7454360042
Ge           10.1987530615        1.0040931147        5.6553361729
Ge           10.1983754323        3.0882355772        6.9954701047
Ge           14.2758458169        0.2784696917       16.7535495735
Ge           12.6491629545        0.6124305180        5.2607984670
Ge           12.3675333554        4.4161510744        6.9038512181
Ge           12.2676514300       -0.0196798829        9.0440217696
Ge           12.1928662168        4.3430173326       11.0928082847
Ge           10.1991430696        2.8190168502       11.1166473678
Ge           14.2803441548        1.4693100151        9.0300457142
Ge           14.2786170270        2.9193019437       11.0500829147
Ge           10.1992198916        1.4496082525        8.9872823195
Ge            8.1308831335       -0.0181075551        9.0476414256
Ge            8.2057424414        4.3433810599       11.0964087333
Ge            8.1543173488       -0.0552147889       13.1732276899
Ge           -0.3312103708        4.4479898476       15.3661885176
Ge           14.2765749615        2.5154934291       15.2441173682
Ge           10.1980842611        1.4942626938       13.2732861902
Ge           10.1957250043        3.4565607127       15.0310477546
Ge           14.2790099668        1.4503340442       13.0394238367
Ge           12.2434185077       -0.0521525919       13.1694919360
Ge           12.5622532332        4.4471900889       15.3607140760
Ge            7.7438291933        6.3836136009        5.2669115483
Ge            8.0319158002       10.1872595132        6.9069670578
Ge           14.2796611832        8.2436253347        6.7440350030
Ge           10.1960743703        6.7724415846        5.6547826907
Ge           10.1997519498        8.8569274090        6.9947629102
Ge           14.2760753801        6.0518610753       16.7542321811
Ge           12.6471979444        6.3829404484        5.2617479571
Ge           12.3671209713       10.1862287298        6.9030652567
Ge           12.2674795949        5.7522889905        9.0441956710
Ge           12.1927204222       10.1112042721       11.0947454600
Ge           10.1980501465        8.5883560649       11.1195777407
Ge           14.2794420770        7.2412531553        9.0298071855
Ge           14.2789557891        8.6893906412       11.0489426787
Ge           10.1998268505        7.2199031135        8.9891665812
Ge            8.1311616441        5.7528182242        9.0466660310
Ge            8.2052023739       10.1125117365       11.0964549818
Ge            8.1540960390        5.7167815446       13.1718947716
Ge           -0.3273999161       10.2191102997       15.3657283077
Ge           14.2766733479        8.2889477205       15.2434105316
Ge           10.1990189381        7.2636069703       13.2760031018
Ge           10.1952227749        9.2201110145       15.0408034781
Ge           14.2764605908        7.2199009298       13.0399979213
Ge           12.2429349808        5.7172107207       13.1693235285
Ge           12.5591164089       10.2178043902       15.3611775946
End final coordinates



     Writing output data file ./out/ge.save/
 
     init_run     :      2.48s CPU      3.26s WALL (       1 calls)
     electrons    :   5082.47s CPU   6467.97s WALL (      47 calls)
     update_pot   :      9.89s CPU     10.77s WALL (      46 calls)
     forces       :     77.20s CPU    114.65s WALL (      47 calls)

     Called by init_run:
     wfcinit      :      2.00s CPU      2.69s WALL (       1 calls)
     potinit      :      0.09s CPU      0.12s WALL (       1 calls)
     hinit0       :      0.11s CPU      0.15s WALL (       1 calls)

     Called by electrons:
     c_bands      :   4721.37s CPU   6091.29s WALL (     722 calls)
     sum_band     :    324.76s CPU    330.51s WALL (     722 calls)
     v_of_rho     :     28.27s CPU     35.91s WALL (     749 calls)
     mix_rho      :      7.62s CPU      7.94s WALL (     722 calls)

     Called by c_bands:
     init_us_2    :     51.08s CPU     51.68s WALL (    1445 calls)
     regterg      :   4527.91s CPU   5894.78s WALL (     722 calls)

     Called by *egterg:
     rdiaghg      :    197.02s CPU    380.74s WALL (    3050 calls)
     h_psi        :   2044.41s CPU   2120.27s WALL (    3117 calls)
     g_psi        :     12.61s CPU     12.83s WALL (    2394 calls)

     Called by h_psi:
     h_psi:calbec :    506.64s CPU    544.95s WALL (    3117 calls)
     vloc_psi     :   1116.38s CPU   1149.57s WALL (    3117 calls)
     add_vuspsi   :    390.20s CPU    394.23s WALL (    3117 calls)

     General routines
     calbec       :    561.99s CPU    633.31s WALL (    3305 calls)
     fft          :     20.30s CPU     29.33s WALL (    6434 calls)
     ffts         :      1.83s CPU      1.85s WALL (     722 calls)
     fftw         :   1189.29s CPU   1222.09s WALL ( 1626168 calls)
 
     Parallel routines
 
     PWSCF        :      1h26m CPU      1h50m WALL

 
   This run was terminated on:   0:42:17  29Apr2025            

=------------------------------------------------------------------------------=
   JOB DONE.
=------------------------------------------------------------------------------=
