
     Program PWSCF v.6.8 starts on  2Jun2025 at 14:56:32 

     This program is part of the open-source Quantum ESPRESSO suite
     for quantum simulation of materials; please cite
         "P. Giannozzi et al., J. Phys.:Condens. Matter 21 395502 (2009);
         "P. Giannozzi et al., J. Phys.:Condens. Matter 29 465901 (2017);
         "P. Giannozzi et al., J. Chem. Phys. 152 154105 (2020);
          URL http://www.quantum-espresso.org", 
     in publications or presentations arising from this work. More details at
     http://www.quantum-espresso.org/quote

     Parallel version (MPI & OpenMP), running on       8 processor cores
     Number of MPI processes:                 8
     Threads/MPI process:                     1

     MPI processes distributed on     1 nodes
     K-points division:     npool     =       4
     R & G space division:  proc/nbgrp/npool/nimage =       2
     187782 MiB available memory on the printing compute node when the environment starts
 
     Reading input from 00_scf.in

     Current dimensions of program PWSCF are:
     Max number of different atomic species (ntypx) = 10
     Max number of k-points (npk) =  40000
     Max angular momentum in pseudopotentials (lmaxx) =  4

     Subspace diagonalization in iterative solution of the eigenvalue problem:
     a serial algorithm will be used

 
     Parallelization info
     --------------------
     sticks:   dense  smooth     PW     G-vecs:    dense   smooth      PW
     Min         483     483    147                10089    10089    1643
     Max         484     484    148                10090    10090    1644
     Sum         967     967    295                20179    20179    3287
 
     Using Slab Decomposition
 


     bravais-lattice index     =            2
     lattice parameter (alat)  =      10.8848  a.u.
     unit-cell volume          =     322.4067 (a.u.)^3
     number of atoms/cell      =            2
     number of atomic types    =            1
     number of electrons       =        28.00
     number of Kohn-Sham states=           18
     kinetic-energy cutoff     =      60.0000  Ry
     charge density cutoff     =     240.0000  Ry
     scf convergence threshold =      1.0E-06
     mixing beta               =       0.5000
     number of iterations used =            8  plain     mixing
     Exchange-correlation= PBE
                           (   1   4   3   4   0   0   0)

     celldm(1)=  10.884822  celldm(2)=   0.000000  celldm(3)=   0.000000
     celldm(4)=   0.000000  celldm(5)=   0.000000  celldm(6)=   0.000000

     crystal axes: (cart. coord. in units of alat)
               a(1) = (  -0.500000   0.000000   0.500000 )  
               a(2) = (   0.000000   0.500000   0.500000 )  
               a(3) = (  -0.500000   0.500000   0.000000 )  

     reciprocal axes: (cart. coord. in units 2 pi/alat)
               b(1) = ( -1.000000 -1.000000  1.000000 )  
               b(2) = (  1.000000  1.000000  1.000000 )  
               b(3) = ( -1.000000  1.000000 -1.000000 )  


     PseudoPot. # 1 for Ge read from file:
     ./Ge.upf
     MD5 check sum: 087fa14d6c89b52166990835c3b338da
     Pseudo is Norm-conserving + core correction, Zval = 14.0
     Generated using ONCVPSP code by D. R. Hamann
     Using radial grid of 1560 points,  6 beta functions with: 
                l(1) =   0
                l(2) =   0
                l(3) =   1
                l(4) =   1
                l(5) =   2
                l(6) =   2

     atomic species   valence    mass     pseudopotential
        Ge            14.00    72.63000     Ge( 1.00)

     48 Sym. Ops., with inversion, found (24 have fractional translation)



   Cartesian axes

     site n.     atom                  positions (alat units)
         1           Ge  tau(   1) = (   0.0000000   0.0000000   0.0000000  )
         2           Ge  tau(   2) = (   0.2500000   0.2500000   0.2500000  )

     number of k points=    29  Gaussian smearing, width (Ry)=  0.0100
                       cart. coord. in units 2pi/alat
        k(    1) = (   0.0000000   0.0000000   0.0000000), wk =   0.0039062
        k(    2) = (  -0.1250000   0.1250000  -0.1250000), wk =   0.0312500
        k(    3) = (  -0.2500000   0.2500000  -0.2500000), wk =   0.0312500
        k(    4) = (  -0.3750000   0.3750000  -0.3750000), wk =   0.0312500
        k(    5) = (   0.5000000  -0.5000000   0.5000000), wk =   0.0156250
        k(    6) = (   0.0000000   0.2500000   0.0000000), wk =   0.0234375
        k(    7) = (  -0.1250000   0.3750000  -0.1250000), wk =   0.0937500
        k(    8) = (  -0.2500000   0.5000000  -0.2500000), wk =   0.0937500
        k(    9) = (   0.6250000  -0.3750000   0.6250000), wk =   0.0937500
        k(   10) = (   0.5000000  -0.2500000   0.5000000), wk =   0.0937500
        k(   11) = (   0.3750000  -0.1250000   0.3750000), wk =   0.0937500
        k(   12) = (   0.2500000   0.0000000   0.2500000), wk =   0.0468750
        k(   13) = (   0.0000000   0.5000000   0.0000000), wk =   0.0234375
        k(   14) = (  -0.1250000   0.6250000  -0.1250000), wk =   0.0937500
        k(   15) = (   0.7500000  -0.2500000   0.7500000), wk =   0.0937500
        k(   16) = (   0.6250000  -0.1250000   0.6250000), wk =   0.0937500
        k(   17) = (   0.5000000   0.0000000   0.5000000), wk =   0.0468750
        k(   18) = (   0.0000000   0.7500000   0.0000000), wk =   0.0234375
        k(   19) = (   0.8750000  -0.1250000   0.8750000), wk =   0.0937500
        k(   20) = (   0.7500000   0.0000000   0.7500000), wk =   0.0468750
        k(   21) = (   0.0000000  -1.0000000   0.0000000), wk =   0.0117188
        k(   22) = (  -0.2500000   0.5000000   0.0000000), wk =   0.0937500
        k(   23) = (   0.6250000  -0.3750000   0.8750000), wk =   0.1875000
        k(   24) = (   0.5000000  -0.2500000   0.7500000), wk =   0.0937500
        k(   25) = (   0.7500000  -0.2500000   1.0000000), wk =   0.0937500
        k(   26) = (   0.6250000  -0.1250000   0.8750000), wk =   0.1875000
        k(   27) = (   0.5000000   0.0000000   0.7500000), wk =   0.0937500
        k(   28) = (  -0.2500000  -1.0000000   0.0000000), wk =   0.0468750
        k(   29) = (  -0.5000000  -1.0000000   0.0000000), wk =   0.0234375

     Dense  grid:    20179 G-vectors     FFT dimensions: (  40,  40,  40)

     Estimated max dynamical RAM per process >      12.92 MB

     Estimated total dynamical RAM >      88.56 MB

     Initial potential from superposition of free atoms

     starting charge   27.99835, renormalised to   28.00000
     Starting wfcs are   18 randomized atomic wfcs

     total cpu time spent up to now is        0.5 secs

     Self-consistent Calculation

     iteration #  1     ecut=    60.00 Ry     beta= 0.50
     Davidson diagonalization with overlap
     ethr =  1.00E-02,  avg # of iterations =  3.8

     Threshold (ethr) on eigenvalues was too large:
     Diagonalizing with lowered threshold

     Davidson diagonalization with overlap
     ethr =  1.13E-04,  avg # of iterations =  3.7

     total cpu time spent up to now is        0.9 secs

     total energy              =    -357.21748013 Ry
     estimated scf accuracy    <       0.03427453 Ry

     iteration #  2     ecut=    60.00 Ry     beta= 0.50
     Davidson diagonalization with overlap
     ethr =  1.22E-04,  avg # of iterations =  1.0

     total cpu time spent up to now is        1.0 secs

     total energy              =    -357.21732652 Ry
     estimated scf accuracy    <       0.00654236 Ry

     iteration #  3     ecut=    60.00 Ry     beta= 0.50
     Davidson diagonalization with overlap
     ethr =  2.34E-05,  avg # of iterations =  1.5

     total cpu time spent up to now is        1.2 secs

     total energy              =    -357.21779948 Ry
     estimated scf accuracy    <       0.00012099 Ry

     iteration #  4     ecut=    60.00 Ry     beta= 0.50
     Davidson diagonalization with overlap
     ethr =  4.32E-07,  avg # of iterations =  3.2

     total cpu time spent up to now is        1.4 secs

     total energy              =    -357.21782292 Ry
     estimated scf accuracy    <       0.00000510 Ry

     iteration #  5     ecut=    60.00 Ry     beta= 0.50
     Davidson diagonalization with overlap
     ethr =  1.82E-08,  avg # of iterations =  2.1

     total cpu time spent up to now is        1.6 secs

     End of self-consistent calculation

          k = 0.0000 0.0000 0.0000 (  2637 PWs)   bands (ev):

   -16.0652 -16.0652 -16.0652 -16.0461 -16.0461 -15.8653 -15.8653 -15.8653
   -15.8419 -15.8419  -3.5653   8.3521   8.8125   8.8125   8.8125  11.3416
    11.3416  11.3416

          k =-0.1250 0.1250-0.1250 (  2556 PWs)   bands (ev):

   -16.0667 -16.0667 -16.0578 -16.0164 -16.0164 -15.8530 -15.8530 -15.8436
   -15.8230 -15.8230  -3.3848   6.3640   8.5018   8.5018   9.6152  11.7658
    11.7658  12.1452

          k =-0.2500 0.2500-0.2500 (  2541 PWs)   bands (ev):

   -16.0737 -16.0737 -16.0493 -16.0017 -16.0017 -15.8651 -15.8651 -15.8444
   -15.8116 -15.8116  -2.8623   4.1491   7.9860   7.9860   9.3051  12.3785
    12.3785  14.1451

          k =-0.3750 0.3750-0.3750 (  2530 PWs)   bands (ev):

   -16.0733 -16.0733 -16.0420 -15.9916 -15.9916 -15.8698 -15.8698 -15.8530
   -15.8062 -15.8062  -2.1028   2.3115   7.6177   7.6177   8.9591  12.5511
    12.5511  15.9619

          k = 0.5000-0.5000 0.5000 (  2512 PWs)   bands (ev):

   -16.0729 -16.0729 -16.0361 -15.9856 -15.9856 -15.8711 -15.8711 -15.8617
   -15.7944 -15.7944  -1.6059   1.4470   7.4892   7.4892   8.8336  12.5320
    12.5320  15.9239

          k = 0.0000 0.2500 0.0000 (  2557 PWs)   bands (ev):

   -16.0637 -16.0637 -16.0612 -16.0238 -16.0101 -15.8721 -15.8397 -15.8330
   -15.8330 -15.8241  -3.3236   6.2782   8.0017   8.0017  10.7263  10.7395
    12.4628  12.4628

          k =-0.1250 0.3750-0.1250 (  2544 PWs)   bands (ev):

   -16.0757 -16.0716 -16.0535 -16.0073 -15.9879 -15.8883 -15.8526 -15.8335
   -15.8229 -15.8107  -2.9103   4.6186   7.3732   7.4703  10.6316  11.2698
    13.2573  13.5461

          k =-0.2500 0.5000-0.2500 (  2530 PWs)   bands (ev):

   -16.0843 -16.0722 -16.0393 -15.9909 -15.9759 -15.8979 -15.8664 -15.8497
   -15.8014 -15.7987  -2.2058   2.7941   6.7155   7.1689  10.2962  12.0424
    13.4575  14.3304

          k = 0.6250-0.3750 0.6250 (  2519 PWs)   bands (ev):

   -16.0864 -16.0745 -16.0248 -15.9788 -15.9748 -15.8907 -15.8764 -15.8687
   -15.7901 -15.7891  -1.5107   1.5479   6.2798   7.1625  10.0660  12.3257
    13.2171  15.8310

          k = 0.5000-0.2500 0.5000 (  2527 PWs)   bands (ev):

   -16.0844 -16.0805 -16.0230 -15.9828 -15.9730 -15.8887 -15.8742 -15.8719
   -15.7978 -15.7931  -1.7002   1.8536   6.1536   7.4427  10.0677  12.5603
    12.9297  15.9604

          k = 0.3750-0.1250 0.3750 (  2538 PWs)   bands (ev):

   -16.0836 -16.0766 -16.0407 -16.0007 -15.9807 -15.8829 -15.8688 -15.8488
   -15.8049 -15.8040  -2.4692   3.3748   6.4035   7.9398  10.2628  12.5203
    12.6945  14.3228

          k = 0.2500 0.0000 0.2500 (  2541 PWs)   bands (ev):

   -16.0762 -16.0670 -16.0500 -16.0100 -15.9997 -15.8735 -15.8540 -15.8323
   -15.8197 -15.8104  -3.0882   5.1384   7.1906   8.4512  10.2977  11.8897
    12.0077  13.4143

          k = 0.0000 0.5000 0.0000 (  2525 PWs)   bands (ev):

   -16.0735 -16.0735 -16.0519 -15.9940 -15.9629 -15.9092 -15.8558 -15.8215
   -15.8106 -15.8106  -2.6066   4.0682   6.9053   6.9053   9.8770  11.4144
    14.4450  14.4450

          k =-0.1250 0.6250-0.1250 (  2530 PWs)   bands (ev):

   -16.0822 -16.0753 -16.0423 -15.9821 -15.9476 -15.9322 -15.8740 -15.8416
   -15.7979 -15.7975  -1.9834   2.7902   6.1309   6.5725  10.1137  11.4238
    14.3987  15.0623

          k = 0.7500-0.2500 0.7500 (  2522 PWs)   bands (ev):

   -16.0936 -16.0774 -16.0163 -15.9644 -15.9458 -15.9306 -15.8895 -15.8663
   -15.7898 -15.7825  -1.2052   1.5669   5.3054   6.5566  10.2287  12.8538
    14.1328  14.8585

          k = 0.6250-0.1250 0.6250 (  2534 PWs)   bands (ev):

   -16.0977 -16.0851 -16.0125 -15.9594 -15.9530 -15.9150 -15.9032 -15.8790
   -15.7931 -15.7831  -1.0576   1.3732   4.9103   6.8573  10.3952  13.6468
    14.3340  15.3525

          k = 0.5000 0.0000 0.5000 (  2529 PWs)   bands (ev):

   -16.0892 -16.0855 -16.0163 -15.9825 -15.9582 -15.9000 -15.8802 -15.8741
   -15.7981 -15.7883  -1.7839   2.3773   5.1865   7.3985  10.6626  13.4848
    13.7448  13.9612

          k = 0.0000 0.7500 0.0000 (  2518 PWs)   bands (ev):

   -16.0747 -16.0747 -16.0342 -15.9622 -15.9592 -15.9205 -15.8811 -15.8493
   -15.7965 -15.7965  -1.4421   1.9870   6.1742   6.1742   9.4606  10.4070
    16.5425  16.5425

          k = 0.8750-0.1250 0.8750 (  2524 PWs)   bands (ev):

   -16.0854 -16.0765 -16.0184 -15.9780 -15.9435 -15.9082 -15.9057 -15.8707
   -15.7878 -15.7868  -0.6593   0.9952   5.4721   6.0902   9.7667  10.7613
    16.3765  16.8114

          k = 0.7500 0.0000 0.7500 (  2522 PWs)   bands (ev):

   -16.0969 -16.0819 -16.0076 -15.9572 -15.9260 -15.9203 -15.9188 -15.8824
   -15.7853 -15.7761  -0.3444   0.6839   4.7531   6.3377  10.0017  12.7896
    15.7052  15.9369

          k = 0.0000-1.0000 0.0000 (  2498 PWs)   bands (ev):

   -16.0745 -16.0745 -16.0032 -16.0032 -15.9164 -15.9164 -15.8825 -15.8825
   -15.7796 -15.7796   0.1169   0.1169   5.9223   5.9223   9.6315   9.6315
    17.8889  17.8889

          k =-0.2500 0.5000 0.0000 (  2536 PWs)   bands (ev):

   -16.0834 -16.0768 -16.0415 -15.9953 -15.9691 -15.9077 -15.8667 -15.8425
   -15.8023 -15.8021  -2.3943   3.4722   6.1378   7.2917  11.1561  11.3791
    13.4457  14.1687

          k = 0.6250-0.3750 0.8750 (  2531 PWs)   bands (ev):

   -16.0907 -16.0820 -16.0194 -15.9803 -15.9569 -15.9147 -15.8796 -15.8659
   -15.7960 -15.7889  -1.6345   2.1075   5.4733   6.8468  11.1204  12.1654
    13.6390  14.7803

          k = 0.5000-0.2500 0.7500 (  2526 PWs)   bands (ev):

   -16.0959 -16.0815 -16.0113 -15.9670 -15.9553 -15.9136 -15.8923 -15.8732
   -15.7891 -15.7851  -1.1168   1.3430   5.2907   6.6476  11.0429  12.2228
    14.4122  15.5132

          k = 0.7500-0.2500 1.0000 (  2522 PWs)   bands (ev):

   -16.0837 -16.0821 -16.0203 -15.9634 -15.9530 -15.9254 -15.8897 -15.8623
   -15.7911 -15.7851  -1.2838   1.7896   5.5257   6.1035  10.7006  11.2987
    14.2447  16.4113

          k = 0.6250-0.1250 0.8750 (  2525 PWs)   bands (ev):

   -16.0964 -16.0841 -16.0013 -15.9541 -15.9455 -15.9222 -15.9107 -15.8812
   -15.7861 -15.7796  -0.5575   0.9320   4.9328   5.9237  11.0711  12.8862
    13.8107  15.6351

          k = 0.5000 0.0000 0.7500 (  2529 PWs)   bands (ev):

   -16.0977 -16.0877 -16.0027 -15.9558 -15.9338 -15.9325 -15.9102 -15.8774
   -15.7900 -15.7818  -0.8661   1.2773   4.7921   6.2610  11.3860  13.2042
    13.6816  15.3375

          k =-0.2500-1.0000 0.0000 (  2530 PWs)   bands (ev):

   -16.0859 -16.0859 -15.9925 -15.9925 -15.9256 -15.9256 -15.8958 -15.8958
   -15.7863 -15.7863   0.1571   0.1571   5.4941   5.4941  10.7523  10.7523
    16.1331  16.1331

          k =-0.5000-1.0000 0.0000 (  2520 PWs)   bands (ev):

   -16.0920 -16.0920 -15.9710 -15.9710 -15.9324 -15.9324 -15.8996 -15.8996
   -15.7812 -15.7812   0.1992   0.1992   5.1584   5.1584  12.9229  12.9229
    13.4996  13.4996

     the Fermi energy is     8.7649 ev

!    total energy              =    -357.21782360 Ry
     estimated scf accuracy    <       0.00000036 Ry
     smearing contrib. (-TS)   =      -0.00007976 Ry
     internal energy E=F+TS    =    -357.21774384 Ry

     The total energy is F=E-TS. E is the sum of the following terms:
     one-electron contribution =    -188.70663391 Ry
     hartree contribution      =     112.70182290 Ry
     xc contribution           =     -87.21575576 Ry
     ewald contribution        =    -193.99717709 Ry

     convergence has been achieved in   5 iterations

     Writing output data file ./Ge_out/Ge_scf.save/
 
     init_run     :      0.12s CPU      0.25s WALL (       1 calls)
     electrons    :      0.94s CPU      1.07s WALL (       1 calls)

     Called by init_run:
     wfcinit      :      0.05s CPU      0.10s WALL (       1 calls)
     potinit      :      0.01s CPU      0.03s WALL (       1 calls)
     hinit0       :      0.02s CPU      0.05s WALL (       1 calls)

     Called by electrons:
     c_bands      :      0.75s CPU      0.84s WALL (       6 calls)
     sum_band     :      0.14s CPU      0.15s WALL (       6 calls)
     v_of_rho     :      0.05s CPU      0.06s WALL (       6 calls)
     mix_rho      :      0.00s CPU      0.01s WALL (       6 calls)

     Called by c_bands:
     init_us_2    :      0.02s CPU      0.02s WALL (     104 calls)
     cegterg      :      0.63s CPU      0.67s WALL (      48 calls)

     Called by *egterg:
     cdiaghg      :      0.04s CPU      0.08s WALL (     163 calls)
     h_psi        :      0.55s CPU      0.60s WALL (     179 calls)
     g_psi        :      0.00s CPU      0.01s WALL (     123 calls)

     Called by h_psi:
     h_psi:calbec :      0.02s CPU      0.03s WALL (     179 calls)
     vloc_psi     :      0.51s CPU      0.54s WALL (     179 calls)
     add_vuspsi   :      0.02s CPU      0.02s WALL (     179 calls)

     General routines
     calbec       :      0.02s CPU      0.03s WALL (     179 calls)
     fft          :      0.01s CPU      0.02s WALL (      61 calls)
     ffts         :      0.00s CPU      0.00s WALL (       6 calls)
     fftw         :      0.51s CPU      0.55s WALL (    5416 calls)
 
     Parallel routines
 
     PWSCF        :      1.10s CPU      1.67s WALL

 
   This run was terminated on:  14:56:34   2Jun2025            

=------------------------------------------------------------------------------=
   JOB DONE.
=------------------------------------------------------------------------------=
