
     Program PWSCF v.6.8 starts on 28Apr2025 at 15: 8:56 

     This program is part of the open-source Quantum ESPRESSO suite
     for quantum simulation of materials; please cite
         "P. Giannozzi et al., J. Phys.:Condens. Matter 21 395502 (2009);
         "P. Giannozzi et al., J. Phys.:Condens. Matter 29 465901 (2017);
         "P. Giannozzi et al., J. Chem. Phys. 152 154105 (2020);
          URL http://www.quantum-espresso.org", 
     in publications or presentations arising from this work. More details at
     http://www.quantum-espresso.org/quote

     Parallel version (MPI & OpenMP), running on      56 processor cores
     Number of MPI processes:                56
     Threads/MPI process:                     1

     MPI processes distributed on     1 nodes
     R & G space division:  proc/nbgrp/npool/nimage =      56
     186118 MiB available memory on the printing compute node when the environment starts
 
     Reading input from surface_relax.in
Warning: card &CELL ignored
Warning: card / ignored
Warning: card &FCP ignored
Warning: card / ignored
Warning: card &RISM ignored
Warning: card / ignored

     Current dimensions of program PWSCF are:
     Max number of different atomic species (ntypx) = 10
     Max number of k-points (npk) =  40000
     Max angular momentum in pseudopotentials (lmaxx) =  4

     File ./out/ge.update deleted, as requested

     File ./out/ge.bfgs deleted, as requested

     Subspace diagonalization in iterative solution of the eigenvalue problem:
     one sub-group per band group will be used
     scalapack distributed-memory algorithm (size of sub-group:  7*  7 procs)

 
     Parallelization info
     --------------------
     sticks:   dense  smooth     PW     G-vecs:    dense   smooth      PW
     Min          78      78     21                 9708     9708    1353
     Max          79      79     22                 9717     9717    1362
     Sum        4397    4397   1181               543837   543837   76013
 
     Using Slab Decomposition
 


     bravais-lattice index     =            0
     lattice parameter (alat)  =      21.4478  a.u.
     unit-cell volume          =    8662.9337 (a.u.)^3
     number of atoms/cell      =           32
     number of atomic types    =            1
     number of electrons       =       448.00
     number of Kohn-Sham states=          269
     kinetic-energy cutoff     =      60.0000  Ry
     charge density cutoff     =     240.0000  Ry
     scf convergence threshold =      1.0E-06
     mixing beta               =       0.4000
     number of iterations used =            8  plain     mixing
     energy convergence thresh.=      1.0E-04
     force convergence thresh. =      1.0E-03
     Exchange-correlation= PBE
                           (   1   4   3   4   0   0   0)
     nstep                     =           50


     celldm(1)=  21.447841  celldm(2)=   0.000000  celldm(3)=   0.000000
     celldm(4)=   0.000000  celldm(5)=   0.000000  celldm(6)=   0.000000

     crystal axes: (cart. coord. in units of alat)
               a(1) = (   1.000000   0.000000   0.000000 )  
               a(2) = (   0.000000   0.500000   0.000000 )  
               a(3) = (   0.000000   0.000000   1.756080 )  

     reciprocal axes: (cart. coord. in units 2 pi/alat)
               b(1) = (  1.000000  0.000000  0.000000 )  
               b(2) = (  0.000000  2.000000  0.000000 )  
               b(3) = (  0.000000  0.000000  0.569450 )  


     PseudoPot. # 1 for Ge read from file:
     ./Ge.upf
     MD5 check sum: 087fa14d6c89b52166990835c3b338da
     Pseudo is Norm-conserving + core correction, Zval = 14.0
     Generated using ONCVPSP code by D. R. Hamann
     Using radial grid of 1560 points,  6 beta functions with: 
                l(1) =   0
                l(2) =   0
                l(3) =   1
                l(4) =   1
                l(5) =   2
                l(6) =   2

     atomic species   valence    mass     pseudopotential
        Ge            14.00    72.63000     Ge( 1.00)

     No symmetry found



   Cartesian axes

     site n.     atom                  positions (alat units)
         1           Ge  tau(   1) = (  -0.0622632   0.3120497   0.4755391  )
         2           Ge  tau(   2) = (   0.1328577   0.3778863   0.5502718  )
         3           Ge  tau(   3) = (   0.2840956  -0.0342629   0.4004787  )
         4           Ge  tau(   4) = (   0.3729332   0.1175271   0.5497826  )
         5           Ge  tau(   5) = (   0.0055201   0.0046259   0.6849924  )
         6           Ge  tau(   6) = (   0.1285122   0.1232009   0.8196122  )
         7           Ge  tau(   7) = (   0.2467589   0.2459818   0.6843949  )
         8           Ge  tau(   8) = (   0.3734555   0.3779809   0.8070796  )
         9           Ge  tau(   9) = (   0.4980262   0.2527662   0.9348774  )
        10           Ge  tau(  10) = (   0.1209585   0.3708532   1.0700725  )
        11           Ge  tau(  11) = (   0.2528327  -0.0020405   0.9476184  )
        12           Ge  tau(  12) = (   0.3799657   0.1295992   1.0704906  )
        13           Ge  tau(  13) = (   0.4933938  -0.0018290   1.2054733  )
        14           Ge  tau(  14) = (   0.1885059   0.0638859   1.2796592  )
        15           Ge  tau(  15) = (   0.2529137   0.2584433   1.2047499  )
        16           Ge  tau(  16) = (   0.3409997   0.4103792   1.3543666  )
        17           Ge  tau(  17) = (   0.4372319   0.3130085   0.4757545  )
        18           Ge  tau(  18) = (   0.6328102   0.3777761   0.5508948  )
        19           Ge  tau(  19) = (   0.7846050  -0.0341815   0.4012335  )
        20           Ge  tau(  20) = (   0.8730215   0.1170249   0.5506737  )
        21           Ge  tau(  21) = (   0.5051669   0.0050165   0.6845224  )
        22           Ge  tau(  22) = (   0.6278516   0.1229349   0.8202501  )
        23           Ge  tau(  23) = (   0.7464383   0.2458372   0.6849755  )
        24           Ge  tau(  24) = (   0.8732161   0.3779183   0.8074239  )
        25           Ge  tau(  25) = (  -0.0019052   0.2528668   0.9344403  )
        26           Ge  tau(  26) = (   0.6209671   0.3708300   1.0707996  )
        27           Ge  tau(  27) = (   0.7525745  -0.0021162   0.9481012  )
        28           Ge  tau(  28) = (   0.8799060   0.1299391   1.0700148  )
        29           Ge  tau(  29) = (  -0.0062691  -0.0017953   1.2041383  )
        30           Ge  tau(  30) = (   0.6886614   0.0634531   1.2795734  )
        31           Ge  tau(  31) = (   0.7533336   0.2581830   1.2048284  )
        32           Ge  tau(  32) = (   0.8416686   0.4105102   1.3537873  )

     number of k points=     2  Gaussian smearing, width (Ry)=  0.0100
                       cart. coord. in units 2pi/alat
        k(    1) = (   0.0000000   0.0000000   0.0000000), wk =   1.0000000
        k(    2) = (   0.0000000  -1.0000000   0.0000000), wk =   1.0000000

     Dense  grid:   543837 G-vectors     FFT dimensions: ( 108,  54, 192)

     Estimated max dynamical RAM per process >      55.06 MB

     Estimated total dynamical RAM >       3.01 GB

     Initial potential from superposition of free atoms

     starting charge  447.97367, renormalised to  448.00000

     negative rho (up, down):  2.627E-05 0.000E+00
     Starting wfcs are  288 randomized atomic wfcs

     total cpu time spent up to now is        1.6 secs

     Self-consistent Calculation

     iteration #  1     ecut=    60.00 Ry     beta= 0.40
     Davidson diagonalization with overlap
     ethr =  1.00E-02,  avg # of iterations =  3.0

     Threshold (ethr) on eigenvalues was too large:
     Diagonalizing with lowered threshold

     Davidson diagonalization with overlap
     ethr =  1.80E-04,  avg # of iterations =  8.5

     negative rho (up, down):  1.022E-05 0.000E+00

     total cpu time spent up to now is       10.2 secs

     total energy              =   -5714.71368358 Ry
     estimated scf accuracy    <       0.88466498 Ry

     iteration #  2     ecut=    60.00 Ry     beta= 0.40
     Davidson diagonalization with overlap
     ethr =  1.97E-04,  avg # of iterations = 12.0

     negative rho (up, down):  5.859E-06 0.000E+00

     total cpu time spent up to now is       15.1 secs

     total energy              =   -5714.45815267 Ry
     estimated scf accuracy    <       3.61902944 Ry

     iteration #  3     ecut=    60.00 Ry     beta= 0.40
     Davidson diagonalization with overlap
     ethr =  1.97E-04,  avg # of iterations = 14.5

     negative rho (up, down):  2.154E-07 0.000E+00

     total cpu time spent up to now is       20.1 secs

     total energy              =   -5714.83437894 Ry
     estimated scf accuracy    <       0.36362376 Ry

     iteration #  4     ecut=    60.00 Ry     beta= 0.40
     Davidson diagonalization with overlap
     ethr =  8.12E-05,  avg # of iterations = 10.0

     negative rho (up, down):  3.708E-08 0.000E+00

     total cpu time spent up to now is       24.2 secs

     total energy              =   -5714.79788640 Ry
     estimated scf accuracy    <       0.98425899 Ry

     iteration #  5     ecut=    60.00 Ry     beta= 0.40
     Davidson diagonalization with overlap
     ethr =  8.12E-05,  avg # of iterations =  9.0

     total cpu time spent up to now is       28.0 secs

     total energy              =   -5714.85092769 Ry
     estimated scf accuracy    <       0.31591137 Ry

     iteration #  6     ecut=    60.00 Ry     beta= 0.40
     Davidson diagonalization with overlap
     ethr =  7.05E-05,  avg # of iterations =  2.5

     total cpu time spent up to now is       30.9 secs

     total energy              =   -5714.86602381 Ry
     estimated scf accuracy    <       0.02710108 Ry

     iteration #  7     ecut=    60.00 Ry     beta= 0.40
     Davidson diagonalization with overlap
     ethr =  6.05E-06,  avg # of iterations = 17.5

     total cpu time spent up to now is       35.8 secs

     total energy              =   -5714.86776383 Ry
     estimated scf accuracy    <       0.01062116 Ry

     iteration #  8     ecut=    60.00 Ry     beta= 0.40
     Davidson diagonalization with overlap
     ethr =  2.37E-06,  avg # of iterations =  2.0

     total cpu time spent up to now is       38.6 secs

     total energy              =   -5714.86781802 Ry
     estimated scf accuracy    <       0.00243896 Ry

     iteration #  9     ecut=    60.00 Ry     beta= 0.40
     Davidson diagonalization with overlap
     ethr =  5.44E-07,  avg # of iterations =  2.0

     total cpu time spent up to now is       41.4 secs

     total energy              =   -5714.86793460 Ry
     estimated scf accuracy    <       0.00018074 Ry

     iteration # 10     ecut=    60.00 Ry     beta= 0.40
     Davidson diagonalization with overlap
     ethr =  4.03E-08,  avg # of iterations =  2.0

     total cpu time spent up to now is       44.2 secs

     total energy              =   -5714.86795774 Ry
     estimated scf accuracy    <       0.00007186 Ry

     iteration # 11     ecut=    60.00 Ry     beta= 0.40
     Davidson diagonalization with overlap
     ethr =  1.60E-08,  avg # of iterations =  2.0

     total cpu time spent up to now is       47.0 secs

     total energy              =   -5714.86796277 Ry
     estimated scf accuracy    <       0.00000532 Ry

     iteration # 12     ecut=    60.00 Ry     beta= 0.40
     Davidson diagonalization with overlap
     ethr =  1.19E-09,  avg # of iterations =  2.5

     total cpu time spent up to now is       50.0 secs

     total energy              =   -5714.86796341 Ry
     estimated scf accuracy    <       0.00000312 Ry

     iteration # 13     ecut=    60.00 Ry     beta= 0.40
     Davidson diagonalization with overlap
     ethr =  6.96E-10,  avg # of iterations =  2.0

     total cpu time spent up to now is       52.8 secs

     total energy              =   -5714.86796359 Ry
     estimated scf accuracy    <       0.00000126 Ry

     iteration # 14     ecut=    60.00 Ry     beta= 0.40
     Davidson diagonalization with overlap
     ethr =  2.81E-10,  avg # of iterations =  2.0

     total cpu time spent up to now is       55.6 secs

     End of self-consistent calculation

          k = 0.0000 0.0000 0.0000 ( 67991 PWs)   bands (ev):

   -21.5304 -21.5251 -21.5237 -21.5230 -21.4922 -21.4874 -21.4858 -21.4847
   -21.4546 -21.4486 -21.4476 -21.4465 -21.4210 -21.4176 -21.4158 -21.4145
   -21.3915 -21.3875 -21.3855 -21.3846 -21.3165 -21.3137 -21.3115 -21.3099
   -21.3089 -21.3084 -21.3083 -21.3062 -21.3048 -21.3025 -21.2999 -21.2970
   -21.2959 -21.2955 -21.2939 -21.2899 -21.2816 -21.2749 -21.2743 -21.2718
   -21.2697 -21.2678 -21.2663 -21.2647 -21.2624 -21.2507 -21.2480 -21.2370
   -21.2335 -21.2247 -21.2246 -21.2217 -21.2212 -21.2190 -21.2174 -21.2166
   -21.2133 -21.2114 -21.2110 -21.2068 -21.2058 -21.1996 -21.1972 -21.1940
   -21.1899 -21.1886 -21.1882 -21.1844 -21.1840 -21.1812 -21.1769 -21.1753
   -21.1746 -21.1731 -21.1684 -21.1678 -21.1674 -21.1667 -21.1639 -21.1632
   -21.1620 -21.1603 -21.1526 -21.1520 -21.1474 -21.1468 -21.1446 -21.1422
   -21.1416 -21.1387 -21.1373 -21.1370 -21.1328 -21.1310 -21.1297 -21.1279
   -21.1272 -21.1262 -21.1253 -21.1198 -21.1167 -21.1148 -21.1099 -21.1083
   -21.1074 -21.1032 -21.0996 -21.0982 -21.0917 -21.0898 -21.0872 -21.0787
   -21.0760 -21.0730 -21.0718 -21.0702 -21.0643 -21.0633 -21.0604 -21.0581
   -21.0560 -21.0399 -21.0389 -21.0381 -21.0300 -21.0283 -21.0221 -21.0173
   -21.0074 -21.0060 -20.9950 -20.9925 -20.9876 -20.9862 -20.9835 -20.9803
   -20.9796 -20.9783 -20.9745 -20.9738 -20.9723 -20.9714 -20.9700 -20.9692
   -20.9610 -20.9592 -20.9488 -20.9474 -20.9452 -20.9383 -20.9382 -20.9372
   -20.9357 -20.9335 -20.9316 -20.9302 -20.9292 -20.9279 -20.9271 -20.9253
    -8.6978  -8.1898  -7.7815  -7.7272  -7.3520  -7.2739  -7.1272  -6.4718
    -6.2120  -5.9425  -5.4543  -5.1183  -5.0551  -5.0512  -5.0460  -5.0264
    -4.8520  -4.8468  -4.5073  -4.4809  -4.0728  -3.7841  -3.6821  -3.6554
    -3.1262  -2.8131  -2.6362  -2.0671  -1.5229  -1.2267  -1.1775  -0.3339
    -0.2694  -0.2233  -0.2184  -0.0695   0.0103   0.0528   0.1725   0.3831
     0.6200   0.7300   0.7448   0.8516   0.9071   1.0520   1.1170   1.1214
     1.4315   1.5395   1.6265   1.6594   1.6711   1.7807   1.8457   1.9452
     2.0532   2.2261   2.3480   2.4542   2.7367   2.7499   2.9959   3.0308
     3.1887   3.5154   4.0106   4.1157   4.4222   4.5978   4.7557   4.7829
     4.9338   5.0198   5.0617   5.0950   5.1523   5.2895   5.4639   5.4758
     5.6908   5.7135   5.7590   5.9151   6.0598   6.0991   6.1183   6.3491
     6.5137   6.6435   6.6678   6.6755   6.8094   7.1030   7.1111   7.1326
     7.4392   7.4494   7.6102   7.8176   7.8706   8.1594   8.2230   8.2768
     8.3034   8.4311   8.4714   8.4910   8.4983

          k = 0.0000-1.0000 0.0000 ( 67998 PWs)   bands (ev):

   -21.5311 -21.5258 -21.5243 -21.5237 -21.4941 -21.4893 -21.4874 -21.4867
   -21.4558 -21.4499 -21.4488 -21.4476 -21.4209 -21.4175 -21.4156 -21.4143
   -21.3922 -21.3884 -21.3859 -21.3851 -21.3176 -21.3153 -21.3144 -21.3131
   -21.3122 -21.3098 -21.3068 -21.3041 -21.3037 -21.3021 -21.3020 -21.2971
   -21.2947 -21.2932 -21.2876 -21.2836 -21.2821 -21.2810 -21.2803 -21.2747
   -21.2738 -21.2694 -21.2666 -21.2631 -21.2547 -21.2374 -21.2369 -21.2345
   -21.2327 -21.2288 -21.2273 -21.2239 -21.2209 -21.2205 -21.2199 -21.2187
   -21.2178 -21.2139 -21.2120 -21.2094 -21.2089 -21.2064 -21.2058 -21.2034
   -21.2006 -21.1867 -21.1850 -21.1841 -21.1822 -21.1810 -21.1792 -21.1772
   -21.1756 -21.1740 -21.1705 -21.1699 -21.1693 -21.1691 -21.1655 -21.1633
   -21.1629 -21.1616 -21.1608 -21.1529 -21.1524 -21.1492 -21.1426 -21.1386
   -21.1361 -21.1342 -21.1323 -21.1320 -21.1310 -21.1281 -21.1241 -21.1234
   -21.1187 -21.1178 -21.1164 -21.1148 -21.1131 -21.1089 -21.1084 -21.1082
   -21.1033 -21.1008 -21.0987 -21.0974 -21.0937 -21.0910 -21.0893 -21.0846
   -21.0761 -21.0734 -21.0733 -21.0711 -21.0680 -21.0638 -21.0584 -21.0579
   -21.0509 -21.0465 -21.0438 -21.0418 -21.0389 -21.0278 -21.0226 -21.0209
   -21.0107 -21.0062 -20.9960 -20.9879 -20.9854 -20.9831 -20.9817 -20.9802
   -20.9784 -20.9774 -20.9741 -20.9737 -20.9725 -20.9724 -20.9714 -20.9701
   -20.9692 -20.9596 -20.9506 -20.9475 -20.9466 -20.9395 -20.9391 -20.9383
   -20.9369 -20.9348 -20.9326 -20.9314 -20.9300 -20.9289 -20.9277 -20.9262
    -7.7793  -7.7254  -7.3492  -7.1318  -7.0573  -7.0243  -6.9744  -6.9376
    -6.8516  -6.4671  -6.3666  -6.3108  -6.2230  -5.8423  -5.7751  -5.4516
    -5.1251  -4.5090  -4.0694  -3.6533  -3.5309  -3.4488  -3.3513  -3.2558
    -3.1238  -3.0233  -2.6275  -2.0999  -2.0723  -1.7252  -1.5205  -1.1864
    -0.3305  -0.2141  -0.1373  -0.0661   0.0110   0.2958   0.3831   0.5991
     0.7338   0.7369   0.7445   0.9457   1.0524   1.5384   1.6598   1.6692
     1.7222   1.7292   1.7785   1.9767   1.9933   2.0075   2.0489   2.3403
     2.3529   2.3576   2.3666   2.4509   2.7443   2.7559   3.2398   3.3191
     3.4191   4.0043   4.0124   4.1180   4.4898   4.5674   4.6276   4.7507
     4.8986   4.9054   5.0876   5.1547   5.4739   5.4955   5.7201   5.7893
     5.9138   6.0536   6.3487   6.3642   6.6667   6.6802   6.6935   6.9289
     7.0674   7.0774   7.1169   7.1259   7.2583   7.3062   7.3140   7.3953
     7.6035   7.6387   7.6924   7.8208   7.8364   7.8656   7.9099   8.0601
     8.1535   8.2290   8.2704   8.3063   8.4357

     the Fermi energy is     3.2876 ev

!    total energy              =   -5714.86796356 Ry
     estimated scf accuracy    <       0.00000021 Ry
     smearing contrib. (-TS)   =      -0.00821701 Ry
     internal energy E=F+TS    =   -5714.85974655 Ry

     The total energy is F=E-TS. E is the sum of the following terms:
     one-electron contribution =  -15234.13733464 Ry
     hartree contribution      =    7824.72615828 Ry
     xc contribution           =   -1394.59069320 Ry
     ewald contribution        =    3089.14212301 Ry

     convergence has been achieved in  14 iterations

     Forces acting on atoms (cartesian axes, Ry/au):

     atom    1 type  1   force =    -0.00034400    0.00070598    0.00029148
     atom    2 type  1   force =    -0.00079697   -0.00086519    0.00031094
     atom    3 type  1   force =    -0.00005936    0.00100176    0.00005685
     atom    4 type  1   force =    -0.00045644    0.00003207   -0.00043709
     atom    5 type  1   force =    -0.00068923    0.00023275   -0.00060820
     atom    6 type  1   force =    -0.00067546   -0.00006713    0.00179790
     atom    7 type  1   force =    -0.00068050    0.00122060   -0.00099360
     atom    8 type  1   force =     0.00008197   -0.00038276    0.00023003
     atom    9 type  1   force =    -0.00005621    0.00093720    0.00070541
     atom   10 type  1   force =    -0.00020847   -0.00003068   -0.00051136
     atom   11 type  1   force =     0.00012279    0.00024350    0.00048572
     atom   12 type  1   force =    -0.00013937   -0.00011756    0.00069902
     atom   13 type  1   force =     0.00042619   -0.00024314   -0.00077801
     atom   14 type  1   force =    -0.00048852   -0.00126971   -0.00035015
     atom   15 type  1   force =     0.00177690    0.00025840    0.00000721
     atom   16 type  1   force =     0.00064638   -0.00085663    0.00029871
     atom   17 type  1   force =     0.00111666   -0.00012059   -0.00017983
     atom   18 type  1   force =    -0.00074818   -0.00015066   -0.00122781
     atom   19 type  1   force =    -0.00066660   -0.00013096   -0.00029393
     atom   20 type  1   force =    -0.00044647    0.00119793   -0.00026328
     atom   21 type  1   force =    -0.00031074    0.00052653    0.00022883
     atom   22 type  1   force =     0.00054436   -0.00014511    0.00030105
     atom   23 type  1   force =    -0.00037161    0.00022178   -0.00067240
     atom   24 type  1   force =     0.00000094    0.00026872   -0.00045204
     atom   25 type  1   force =     0.00065192   -0.00067967    0.00034106
     atom   26 type  1   force =    -0.00094744   -0.00025971   -0.00032434
     atom   27 type  1   force =     0.00010146    0.00024565   -0.00022777
     atom   28 type  1   force =     0.00044141   -0.00025978    0.00059451
     atom   29 type  1   force =     0.00007056    0.00004435    0.00055249
     atom   30 type  1   force =    -0.00014360   -0.00073097   -0.00017513
     atom   31 type  1   force =     0.00120187    0.00018739    0.00017795
     atom   32 type  1   force =     0.00104577   -0.00101436    0.00041577

     Total force =     0.006003     Total SCF correction =     0.003285
     SCF correction compared to forces is large: reduce conv_thr to get better values

     BFGS Geometry Optimization
     Energy error            =      0.0E+00 Ry
     Gradient error          =      1.8E-03 Ry/Bohr

     number of scf cycles    =   1
     number of bfgs steps    =   0

     energy             new  =   -5714.8679635635 Ry

     new trust radius        =       0.0019217660 bohr
     new conv_thr            =       0.0000010000 Ry


ATOMIC_POSITIONS (angstrom)
Ge           -0.7068514953        3.5420466356        5.3973843322
Ge            1.5074743626        4.2884410924        6.2455886088
Ge            3.2243704127       -0.3883440456        4.5453467498
Ge            4.2324420581        1.3339152850        6.2396410528
Ge            0.0622869010        0.0526259581        7.7741422518
Ge            1.4582181942        1.3982590790        9.3033107553
Ge            2.8002815792        2.7924679567        7.7671567900
Ge            4.2386548512        4.2897701093        9.1602393977
Ge            5.6524228758        2.8693188908       10.6109586977
Ge            1.3727328602        4.2090596812       12.1447397660
Ge            2.8696428315       -0.0230303757       10.7554491701
Ge            4.3124258014        1.4708507687       12.1501261309
Ge            5.6001009876       -0.0208876919       13.6813591506
Ge            2.1392288717        0.7244145894       14.5235738918
Ge            2.8714366219        2.9333924310       13.6735642111
Ge            3.8705888323        4.6572309262       15.3718236181
Ge            4.9630459201        3.5524909220        5.3995795795
Ge            7.1818156097        4.2875684589        6.2518459116
Ge            8.9046852723       -0.3880192065        4.5537278293
Ge            9.9083027860        1.3288323966        6.2498470061
Ge            5.7333325969        0.0572140286        7.7692506638
Ge            7.1262205928        1.3951989325        9.3097588731
Ge            8.4716604482        2.7902982212        7.7739167607
Ge            9.9107483977        4.2894047544        9.1637868256
Ge           -0.0212784306        2.8696042220       10.6058055924
Ge            7.0472942836        4.2086745303       12.1530921100
Ge            8.5415542796       -0.0238879703       10.7605515506
Ge            9.9869105707        1.4746331806       12.1446708759
Ge           -0.0711151951       -0.0203529746       13.6669114882
Ge            7.8160304533        0.7197877326       14.5226925485
Ge            8.5507528311        2.9304011358       13.6745454622
Ge            9.5532467605        4.6586342905       15.3653116372



     Writing output data file ./out/ge.save/
     NEW-OLD atomic charge density approx. for the potential

     total cpu time spent up to now is       56.6 secs

     Self-consistent Calculation

     iteration #  1     ecut=    60.00 Ry     beta= 0.40
     Davidson diagonalization with overlap
     ethr =  1.00E-06,  avg # of iterations =  3.0

     Threshold (ethr) on eigenvalues was too large:
     Diagonalizing with lowered threshold

     Davidson diagonalization with overlap
     ethr =  4.69E-09,  avg # of iterations =  4.0

     total cpu time spent up to now is       64.3 secs

     total energy              =   -5714.86798530 Ry
     estimated scf accuracy    <       0.00002025 Ry

     iteration #  2     ecut=    60.00 Ry     beta= 0.40
     Davidson diagonalization with overlap
     ethr =  4.52E-09,  avg # of iterations =  3.5

     total cpu time spent up to now is       67.4 secs

     total energy              =   -5714.86796015 Ry
     estimated scf accuracy    <       0.00068173 Ry

     iteration #  3     ecut=    60.00 Ry     beta= 0.40
     Davidson diagonalization with overlap
     ethr =  4.52E-09,  avg # of iterations =  2.0

     total cpu time spent up to now is       70.2 secs

     total energy              =   -5714.86798578 Ry
     estimated scf accuracy    <       0.00027988 Ry

     iteration #  4     ecut=    60.00 Ry     beta= 0.40
     Davidson diagonalization with overlap
     ethr =  4.52E-09,  avg # of iterations =  2.5

     total cpu time spent up to now is       73.1 secs

     End of self-consistent calculation

          k = 0.0000 0.0000 0.0000 ( 67991 PWs)   bands (ev):

   -21.5296 -21.5253 -21.5237 -21.5227 -21.4915 -21.4876 -21.4856 -21.4845
   -21.4537 -21.4488 -21.4475 -21.4462 -21.4203 -21.4175 -21.4153 -21.4145
   -21.3907 -21.3875 -21.3850 -21.3845 -21.3165 -21.3136 -21.3115 -21.3098
   -21.3089 -21.3086 -21.3081 -21.3064 -21.3048 -21.3027 -21.3001 -21.2971
   -21.2960 -21.2958 -21.2941 -21.2903 -21.2820 -21.2748 -21.2743 -21.2721
   -21.2695 -21.2678 -21.2663 -21.2651 -21.2626 -21.2506 -21.2479 -21.2370
   -21.2336 -21.2248 -21.2245 -21.2216 -21.2213 -21.2188 -21.2174 -21.2166
   -21.2131 -21.2113 -21.2109 -21.2069 -21.2055 -21.1995 -21.1971 -21.1940
   -21.1896 -21.1884 -21.1878 -21.1843 -21.1838 -21.1809 -21.1768 -21.1751
   -21.1743 -21.1729 -21.1684 -21.1678 -21.1673 -21.1664 -21.1637 -21.1630
   -21.1619 -21.1603 -21.1524 -21.1519 -21.1472 -21.1467 -21.1445 -21.1420
   -21.1415 -21.1385 -21.1371 -21.1369 -21.1325 -21.1308 -21.1295 -21.1280
   -21.1272 -21.1261 -21.1254 -21.1199 -21.1167 -21.1149 -21.1100 -21.1084
   -21.1076 -21.1032 -21.0997 -21.0983 -21.0920 -21.0900 -21.0871 -21.0791
   -21.0761 -21.0729 -21.0720 -21.0705 -21.0644 -21.0633 -21.0603 -21.0582
   -21.0561 -21.0402 -21.0393 -21.0385 -21.0303 -21.0286 -21.0226 -21.0179
   -21.0081 -21.0066 -20.9956 -20.9931 -20.9882 -20.9867 -20.9838 -20.9804
   -20.9795 -20.9788 -20.9742 -20.9735 -20.9724 -20.9715 -20.9703 -20.9694
   -20.9616 -20.9598 -20.9495 -20.9481 -20.9449 -20.9381 -20.9379 -20.9370
   -20.9358 -20.9337 -20.9312 -20.9299 -20.9293 -20.9280 -20.9273 -20.9256
    -8.6979  -8.1897  -7.7811  -7.7273  -7.3518  -7.2739  -7.1274  -6.4716
    -6.2131  -5.9421  -5.4535  -5.1188  -5.0547  -5.0517  -5.0464  -5.0269
    -4.8519  -4.8467  -4.5069  -4.4808  -4.0728  -3.7843  -3.6824  -3.6550
    -3.1267  -2.8125  -2.6350  -2.0680  -1.5227  -1.2262  -1.1778  -0.3339
    -0.2694  -0.2232  -0.2184  -0.0696   0.0105   0.0524   0.1723   0.3828
     0.6201   0.7301   0.7447   0.8517   0.9072   1.0518   1.1168   1.1213
     1.4316   1.5395   1.6264   1.6600   1.6710   1.7808   1.8456   1.9451
     2.0527   2.2260   2.3483   2.4536   2.7364   2.7496   2.9959   3.0310
     3.1890   3.5157   4.0107   4.1160   4.4221   4.5977   4.7561   4.7829
     4.9341   5.0192   5.0618   5.0952   5.1524   5.2893   5.4635   5.4754
     5.6904   5.7133   5.7591   5.9145   6.0597   6.0996   6.1180   6.3487
     6.5137   6.6435   6.6682   6.6753   6.8088   7.1029   7.1114   7.1325
     7.4393   7.4494   7.6097   7.8173   7.8702   8.1592   8.2228   8.2768
     8.3035   8.4310   8.4715   8.4908   8.4983

          k = 0.0000-1.0000 0.0000 ( 67998 PWs)   bands (ev):

   -21.5303 -21.5260 -21.5243 -21.5234 -21.4934 -21.4894 -21.4873 -21.4864
   -21.4549 -21.4501 -21.4487 -21.4473 -21.4202 -21.4174 -21.4150 -21.4144
   -21.3914 -21.3883 -21.3854 -21.3851 -21.3174 -21.3153 -21.3143 -21.3132
   -21.3120 -21.3096 -21.3069 -21.3044 -21.3038 -21.3025 -21.3022 -21.2972
   -21.2950 -21.2933 -21.2878 -21.2841 -21.2825 -21.2811 -21.2801 -21.2746
   -21.2739 -21.2696 -21.2668 -21.2634 -21.2549 -21.2372 -21.2369 -21.2342
   -21.2328 -21.2290 -21.2277 -21.2239 -21.2209 -21.2205 -21.2198 -21.2186
   -21.2178 -21.2139 -21.2118 -21.2093 -21.2090 -21.2062 -21.2057 -21.2037
   -21.2003 -21.1864 -21.1846 -21.1838 -21.1827 -21.1808 -21.1792 -21.1769
   -21.1754 -21.1737 -21.1701 -21.1697 -21.1693 -21.1688 -21.1651 -21.1633
   -21.1625 -21.1615 -21.1606 -21.1530 -21.1521 -21.1489 -21.1425 -21.1384
   -21.1359 -21.1339 -21.1321 -21.1319 -21.1308 -21.1278 -21.1241 -21.1234
   -21.1185 -21.1180 -21.1162 -21.1150 -21.1130 -21.1091 -21.1083 -21.1082
   -21.1033 -21.1010 -21.0988 -21.0973 -21.0939 -21.0913 -21.0896 -21.0849
   -21.0761 -21.0739 -21.0734 -21.0713 -21.0682 -21.0639 -21.0586 -21.0582
   -21.0512 -21.0465 -21.0441 -21.0426 -21.0391 -21.0281 -21.0231 -21.0213
   -21.0112 -21.0068 -20.9966 -20.9884 -20.9861 -20.9834 -20.9816 -20.9803
   -20.9786 -20.9777 -20.9739 -20.9734 -20.9731 -20.9726 -20.9716 -20.9703
   -20.9694 -20.9603 -20.9513 -20.9481 -20.9464 -20.9391 -20.9389 -20.9381
   -20.9370 -20.9350 -20.9323 -20.9310 -20.9301 -20.9290 -20.9279 -20.9265
    -7.7796  -7.7257  -7.3492  -7.1315  -7.0572  -7.0246  -6.9749  -6.9375
    -6.8517  -6.4671  -6.3667  -6.3109  -6.2225  -5.8415  -5.7742  -5.4518
    -5.1243  -4.5088  -4.0697  -3.6537  -3.5308  -3.4495  -3.3513  -3.2562
    -3.1231  -3.0232  -2.6286  -2.1000  -2.0715  -1.7254  -1.5214  -1.1865
    -0.3308  -0.2142  -0.1371  -0.0662   0.0107   0.2954   0.3835   0.5990
     0.7337   0.7374   0.7446   0.9455   1.0521   1.5382   1.6599   1.6702
     1.7224   1.7292   1.7777   1.9765   1.9932   2.0077   2.0494   2.3412
     2.3524   2.3569   2.3659   2.4514   2.7445   2.7557   3.2395   3.3189
     3.4194   4.0046   4.0126   4.1179   4.4903   4.5672   4.6274   4.7509
     4.8984   4.9056   5.0873   5.1541   5.4743   5.4953   5.7201   5.7894
     5.9138   6.0535   6.3492   6.3639   6.6673   6.6798   6.6929   6.9292
     7.0671   7.0773   7.1162   7.1262   7.2585   7.3065   7.3138   7.3955
     7.6039   7.6378   7.6919   7.8208   7.8364   7.8660   7.9100   8.0599
     8.1533   8.2284   8.2703   8.3061   8.4354

     the Fermi energy is     3.2876 ev

!    total energy              =   -5714.86799576 Ry
     estimated scf accuracy    <       0.00000043 Ry
     smearing contrib. (-TS)   =      -0.00821552 Ry
     internal energy E=F+TS    =   -5714.85978024 Ry

     The total energy is F=E-TS. E is the sum of the following terms:
     one-electron contribution =  -15233.52179602 Ry
     hartree contribution      =    7824.44590015 Ry
     xc contribution           =   -1394.59050661 Ry
     ewald contribution        =    3088.80662223 Ry

     convergence has been achieved in   4 iterations

     Forces acting on atoms (cartesian axes, Ry/au):

     atom    1 type  1   force =    -0.00038350    0.00065940    0.00019457
     atom    2 type  1   force =    -0.00076803   -0.00056714    0.00000858
     atom    3 type  1   force =    -0.00007049    0.00083430    0.00014370
     atom    4 type  1   force =    -0.00040545    0.00011392   -0.00044830
     atom    5 type  1   force =    -0.00056668    0.00034817   -0.00063076
     atom    6 type  1   force =    -0.00047479   -0.00009109    0.00110977
     atom    7 type  1   force =    -0.00064368    0.00081341   -0.00080652
     atom    8 type  1   force =     0.00002993   -0.00022244   -0.00000948
     atom    9 type  1   force =    -0.00002320    0.00055668    0.00049207
     atom   10 type  1   force =    -0.00009749   -0.00007501   -0.00019877
     atom   11 type  1   force =     0.00013790    0.00016738    0.00040683
     atom   12 type  1   force =    -0.00001386   -0.00006172    0.00064148
     atom   13 type  1   force =     0.00039861   -0.00026476   -0.00051460
     atom   14 type  1   force =    -0.00029570   -0.00104604   -0.00009906
     atom   15 type  1   force =     0.00143097    0.00015906    0.00016725
     atom   16 type  1   force =     0.00068039   -0.00076700    0.00050205
     atom   17 type  1   force =     0.00083804   -0.00012706   -0.00030282
     atom   18 type  1   force =    -0.00059547   -0.00008605   -0.00109389
     atom   19 type  1   force =    -0.00061704   -0.00004684   -0.00021841
     atom   20 type  1   force =    -0.00046587    0.00102207   -0.00041406
     atom   21 type  1   force =    -0.00024238    0.00045350   -0.00001855
     atom   22 type  1   force =     0.00040173    0.00004495    0.00012023
     atom   23 type  1   force =    -0.00042560    0.00026847   -0.00074036
     atom   24 type  1   force =    -0.00000421    0.00012668   -0.00049996
     atom   25 type  1   force =     0.00029236   -0.00043856    0.00027432
     atom   26 type  1   force =    -0.00053683   -0.00016634   -0.00010342
     atom   27 type  1   force =     0.00013677    0.00012270   -0.00005895
     atom   28 type  1   force =     0.00036229   -0.00025996    0.00065023
     atom   29 type  1   force =    -0.00005202   -0.00004518    0.00061076
     atom   30 type  1   force =     0.00004812   -0.00063359    0.00004285
     atom   31 type  1   force =     0.00100510    0.00011620    0.00024790
     atom   32 type  1   force =     0.00092006   -0.00090812    0.00054533

     Total force =     0.004895     Total SCF correction =     0.003755
     SCF correction compared to forces is large: reduce conv_thr to get better values
     Energy error            =      3.2E-05 Ry
     Gradient error          =      1.4E-03 Ry/Bohr

     number of scf cycles    =   2
     number of bfgs steps    =   1

     energy             old  =   -5714.8679635635 Ry
     energy             new  =   -5714.8679957634 Ry

     CASE: energy            _new < energy            _old

     new trust radius        =       0.0021139426 bohr
     new conv_thr            =       0.0000000100 Ry


ATOMIC_POSITIONS (angstrom)
Ge           -0.7071327806        3.5425433782        5.3975404143
Ge            1.5068986852        4.2879843538        6.2456295766
Ge            3.2243191513       -0.3877031402        4.5454439070
Ge            4.2321340683        1.3339908253        6.2393082426
Ge            0.0618505743        0.0528722309        7.7736747625
Ge            1.4578414124        1.3981939353        9.3042164954
Ge            2.7997976717        2.7931207121        7.7665343453
Ge            4.2386831084        4.2895860052        9.1602597189
Ge            5.6524018138        2.8697772673       10.6113498036
Ge            1.3726475136        4.2090088473       12.1445558911
Ge            2.8697438713       -0.0228969294       10.7557613778
Ge            4.3124011172        1.4707983881       12.1506107716
Ge            5.6004012007       -0.0210825315       13.6809455256
Ge            2.1389864541        0.7236094550       14.5234713557
Ge            2.8725426045        2.9335223267       13.6736705505
Ge            3.8710920003        4.6566490752       15.3721745163
Ge            4.9637023237        3.5523969696        5.3993679683
Ge            7.1813543750        4.2874969395        6.2510153812
Ge            8.9042197621       -0.3880637322        4.5535564252
Ge            9.9079578212        1.3296141954        6.2495556702
Ge            5.7331441497        0.0575603459        7.7692651268
Ge            7.1265362880        1.3952106997        9.3098691541
Ge            8.4713494482        2.7904929598        7.7733727862
Ge            9.9107458495        4.2895154053        9.1634197148
Ge           -0.0210194348        2.8692498147       10.6060176575
Ge            7.0468472622        4.2085398880       12.1529897713
Ge            8.5416521659       -0.0237824676       10.7604883158
Ge            9.9871896106        1.4744394687       12.1451490851
Ge           -0.0711399455       -0.0203764076       13.6673599928
Ge            7.8160443939        0.7193044191       14.5226995534
Ge            8.5515243798        2.9304958745       13.6747222073
Ge            9.5539468070        4.6579453725       15.3657032245



     Writing output data file ./out/ge.save/
     NEW-OLD atomic charge density approx. for the potential

     total cpu time spent up to now is       74.2 secs

     Self-consistent Calculation

     iteration #  1     ecut=    60.00 Ry     beta= 0.40
     Davidson diagonalization with overlap
     ethr =  1.00E-06,  avg # of iterations =  3.0

     Threshold (ethr) on eigenvalues was too large:
     Diagonalizing with lowered threshold

     Davidson diagonalization with overlap
     ethr =  8.50E-09,  avg # of iterations =  2.5

     total cpu time spent up to now is       81.5 secs

     total energy              =   -5714.86800456 Ry
     estimated scf accuracy    <       0.00003943 Ry

     iteration #  2     ecut=    60.00 Ry     beta= 0.40
     Davidson diagonalization with overlap
     ethr =  8.80E-09,  avg # of iterations =  3.0

     total cpu time spent up to now is       84.5 secs

     total energy              =   -5714.86790651 Ry
     estimated scf accuracy    <       0.00356025 Ry

     iteration #  3     ecut=    60.00 Ry     beta= 0.40
     Davidson diagonalization with overlap
     ethr =  8.80E-09,  avg # of iterations =  2.0

     total cpu time spent up to now is       87.4 secs

     total energy              =   -5714.86802003 Ry
     estimated scf accuracy    <       0.00008938 Ry

     iteration #  4     ecut=    60.00 Ry     beta= 0.40
     Davidson diagonalization with overlap
     ethr =  8.80E-09,  avg # of iterations =  2.0

     total cpu time spent up to now is       90.2 secs

     total energy              =   -5714.86802585 Ry
     estimated scf accuracy    <       0.00000252 Ry

     iteration #  5     ecut=    60.00 Ry     beta= 0.40
     Davidson diagonalization with overlap
     ethr =  5.63E-10,  avg # of iterations =  4.0

     total cpu time spent up to now is       93.3 secs

     total energy              =   -5714.86802617 Ry
     estimated scf accuracy    <       0.00000034 Ry

     iteration #  6     ecut=    60.00 Ry     beta= 0.40
     Davidson diagonalization with overlap
     ethr =  7.55E-11,  avg # of iterations =  2.5

     total cpu time spent up to now is       96.3 secs

     total energy              =   -5714.86802623 Ry
     estimated scf accuracy    <       0.00000008 Ry

     iteration #  7     ecut=    60.00 Ry     beta= 0.40
     Davidson diagonalization with overlap
     ethr =  1.80E-11,  avg # of iterations =  2.5

     total cpu time spent up to now is       99.2 secs

     total energy              =   -5714.86802623 Ry
     estimated scf accuracy    <       0.00000002 Ry

     iteration #  8     ecut=    60.00 Ry     beta= 0.40
     Davidson diagonalization with overlap
     ethr =  5.18E-12,  avg # of iterations =  2.0

     total cpu time spent up to now is      102.1 secs

     End of self-consistent calculation

          k = 0.0000 0.0000 0.0000 ( 67991 PWs)   bands (ev):

   -21.5298 -21.5247 -21.5239 -21.5231 -21.4916 -21.4871 -21.4859 -21.4847
   -21.4538 -21.4484 -21.4476 -21.4466 -21.4205 -21.4169 -21.4155 -21.4148
   -21.3907 -21.3869 -21.3853 -21.3848 -21.3162 -21.3133 -21.3115 -21.3094
   -21.3090 -21.3084 -21.3078 -21.3065 -21.3045 -21.3026 -21.2997 -21.2967
   -21.2956 -21.2956 -21.2939 -21.2902 -21.2817 -21.2746 -21.2739 -21.2718
   -21.2694 -21.2675 -21.2661 -21.2649 -21.2624 -21.2505 -21.2478 -21.2368
   -21.2334 -21.2245 -21.2244 -21.2214 -21.2211 -21.2186 -21.2173 -21.2165
   -21.2129 -21.2112 -21.2107 -21.2068 -21.2054 -21.1992 -21.1970 -21.1938
   -21.1895 -21.1880 -21.1878 -21.1840 -21.1837 -21.1808 -21.1766 -21.1749
   -21.1742 -21.1727 -21.1682 -21.1677 -21.1671 -21.1663 -21.1636 -21.1628
   -21.1617 -21.1602 -21.1524 -21.1517 -21.1471 -21.1466 -21.1443 -21.1418
   -21.1414 -21.1383 -21.1370 -21.1368 -21.1324 -21.1306 -21.1295 -21.1278
   -21.1271 -21.1259 -21.1251 -21.1197 -21.1165 -21.1147 -21.1098 -21.1082
   -21.1074 -21.1030 -21.0995 -21.0981 -21.0917 -21.0898 -21.0870 -21.0789
   -21.0759 -21.0728 -21.0718 -21.0704 -21.0643 -21.0631 -21.0602 -21.0580
   -21.0560 -21.0400 -21.0390 -21.0383 -21.0301 -21.0283 -21.0224 -21.0177
   -21.0079 -21.0064 -20.9954 -20.9929 -20.9882 -20.9864 -20.9837 -20.9804
   -20.9794 -20.9787 -20.9748 -20.9740 -20.9726 -20.9716 -20.9703 -20.9695
   -20.9614 -20.9595 -20.9493 -20.9478 -20.9449 -20.9385 -20.9380 -20.9369
   -20.9359 -20.9338 -20.9318 -20.9305 -20.9294 -20.9282 -20.9273 -20.9257
    -8.6974  -8.1897  -7.7803  -7.7269  -7.3515  -7.2736  -7.1274  -6.4711
    -6.2140  -5.9414  -5.4527  -5.1191  -5.0539  -5.0511  -5.0463  -5.0263
    -4.8521  -4.8467  -4.5064  -4.4805  -4.0726  -3.7849  -3.6831  -3.6545
    -3.1270  -2.8118  -2.6336  -2.0689  -1.5221  -1.2257  -1.1778  -0.3336
    -0.2691  -0.2230  -0.2179  -0.0691   0.0115   0.0525   0.1729   0.3825
     0.6202   0.7307   0.7447   0.8519   0.9072   1.0516   1.1174   1.1218
     1.4315   1.5397   1.6265   1.6608   1.6707   1.7810   1.8454   1.9448
     2.0522   2.2262   2.3489   2.4530   2.7362   2.7494   2.9960   3.0311
     3.1898   3.5160   4.0108   4.1162   4.4219   4.5980   4.7565   4.7833
     4.9348   5.0187   5.0619   5.0953   5.1524   5.2893   5.4631   5.4749
     5.6898   5.7131   5.7596   5.9139   6.0596   6.1001   6.1176   6.3482
     6.5136   6.6435   6.6688   6.6753   6.8085   7.1027   7.1116   7.1324
     7.4393   7.4493   7.6092   7.8171   7.8700   8.1593   8.2230   8.2767
     8.3037   8.4311   8.4719   8.4906   8.4985

          k = 0.0000-1.0000 0.0000 ( 67998 PWs)   bands (ev):

   -21.5305 -21.5255 -21.5244 -21.5238 -21.4935 -21.4889 -21.4875 -21.4867
   -21.4550 -21.4497 -21.4488 -21.4477 -21.4204 -21.4168 -21.4153 -21.4147
   -21.3915 -21.3877 -21.3857 -21.3854 -21.3172 -21.3151 -21.3142 -21.3129
   -21.3117 -21.3093 -21.3065 -21.3040 -21.3035 -21.3023 -21.3020 -21.2969
   -21.2949 -21.2931 -21.2876 -21.2836 -21.2821 -21.2807 -21.2800 -21.2745
   -21.2737 -21.2694 -21.2666 -21.2631 -21.2547 -21.2370 -21.2367 -21.2343
   -21.2326 -21.2287 -21.2276 -21.2237 -21.2207 -21.2202 -21.2195 -21.2185
   -21.2177 -21.2138 -21.2116 -21.2090 -21.2087 -21.2061 -21.2056 -21.2034
   -21.2002 -21.1863 -21.1844 -21.1837 -21.1824 -21.1806 -21.1789 -21.1767
   -21.1753 -21.1736 -21.1700 -21.1695 -21.1691 -21.1687 -21.1650 -21.1631
   -21.1625 -21.1613 -21.1605 -21.1528 -21.1520 -21.1488 -21.1424 -21.1383
   -21.1357 -21.1336 -21.1319 -21.1317 -21.1309 -21.1276 -21.1239 -21.1232
   -21.1184 -21.1177 -21.1161 -21.1148 -21.1128 -21.1089 -21.1082 -21.1080
   -21.1031 -21.1008 -21.0986 -21.0971 -21.0938 -21.0910 -21.0895 -21.0847
   -21.0759 -21.0736 -21.0732 -21.0711 -21.0680 -21.0637 -21.0584 -21.0580
   -21.0510 -21.0464 -21.0439 -21.0423 -21.0388 -21.0279 -21.0230 -21.0210
   -21.0111 -21.0066 -20.9965 -20.9882 -20.9860 -20.9833 -20.9815 -20.9802
   -20.9785 -20.9776 -20.9744 -20.9739 -20.9730 -20.9727 -20.9717 -20.9704
   -20.9694 -20.9601 -20.9511 -20.9479 -20.9463 -20.9398 -20.9388 -20.9381
   -20.9371 -20.9351 -20.9328 -20.9317 -20.9302 -20.9292 -20.9279 -20.9266
    -7.7794  -7.7254  -7.3491  -7.1310  -7.0566  -7.0241  -6.9743  -6.9374
    -6.8516  -6.4668  -6.3670  -6.3112  -6.2218  -5.8408  -5.7736  -5.4518
    -5.1234  -4.5085  -4.0698  -3.6540  -3.5303  -3.4497  -3.3507  -3.2561
    -3.1224  -3.0229  -2.6296  -2.1002  -2.0706  -1.7256  -1.5220  -1.1864
    -0.3307  -0.2139  -0.1369  -0.0658   0.0111   0.2953   0.3839   0.5991
     0.7339   0.7378   0.7449   0.9455   1.0518   1.5381   1.6602   1.6711
     1.7227   1.7292   1.7769   1.9761   1.9929   2.0080   2.0500   2.3428
     2.3519   2.3571   2.3666   2.4519   2.7446   2.7556   3.2392   3.3186
     3.4199   4.0049   4.0127   4.1178   4.4907   4.5674   4.6270   4.7510
     4.8979   4.9058   5.0869   5.1534   5.4745   5.4951   5.7201   5.7900
     5.9138   6.0532   6.3498   6.3633   6.6680   6.6794   6.6922   6.9299
     7.0670   7.0771   7.1155   7.1265   7.2587   7.3071   7.3139   7.3960
     7.6044   7.6370   7.6911   7.8208   7.8365   7.8666   7.9104   8.0598
     8.1534   8.2281   8.2703   8.3059   8.4351

     the Fermi energy is     3.2876 ev

!    total energy              =   -5714.86802623 Ry
     estimated scf accuracy    <          4.6E-09 Ry
     smearing contrib. (-TS)   =      -0.00821951 Ry
     internal energy E=F+TS    =   -5714.85980672 Ry

     The total energy is F=E-TS. E is the sum of the following terms:
     one-electron contribution =  -15232.02744382 Ry
     hartree contribution      =    7823.69429076 Ry
     xc contribution           =   -1394.58994406 Ry
     ewald contribution        =    3088.06329040 Ry

     convergence has been achieved in   8 iterations

     Forces acting on atoms (cartesian axes, Ry/au):

     atom    1 type  1   force =    -0.00041819    0.00064332    0.00018663
     atom    2 type  1   force =    -0.00067274   -0.00025684   -0.00005130
     atom    3 type  1   force =    -0.00009593    0.00064739    0.00013659
     atom    4 type  1   force =    -0.00036632    0.00020322   -0.00022043
     atom    5 type  1   force =    -0.00043075    0.00046951   -0.00036561
     atom    6 type  1   force =    -0.00025704   -0.00009936    0.00077894
     atom    7 type  1   force =    -0.00064812    0.00045932   -0.00031528
     atom    8 type  1   force =    -0.00005627   -0.00009477    0.00010720
     atom    9 type  1   force =    -0.00007780    0.00020573    0.00030815
     atom   10 type  1   force =     0.00007188   -0.00010814   -0.00002134
     atom   11 type  1   force =     0.00016227    0.00009765    0.00031449
     atom   12 type  1   force =     0.00007187   -0.00001447    0.00044165
     atom   13 type  1   force =     0.00028598   -0.00031225   -0.00051311
     atom   14 type  1   force =    -0.00005098   -0.00082500   -0.00028807
     atom   15 type  1   force =     0.00111127    0.00001447    0.00002474
     atom   16 type  1   force =     0.00068998   -0.00067025    0.00022453
     atom   17 type  1   force =     0.00050010   -0.00011001   -0.00032810
     atom   18 type  1   force =    -0.00047872   -0.00000399   -0.00074201
     atom   19 type  1   force =    -0.00055599    0.00006438   -0.00026710
     atom   20 type  1   force =    -0.00045823    0.00081944   -0.00035524
     atom   21 type  1   force =    -0.00022679    0.00041723    0.00007658
     atom   22 type  1   force =     0.00023441    0.00020019    0.00024229
     atom   23 type  1   force =    -0.00049176    0.00033381   -0.00050458
     atom   24 type  1   force =     0.00000839    0.00000524   -0.00023864
     atom   25 type  1   force =     0.00005203   -0.00023054    0.00022441
     atom   26 type  1   force =    -0.00019689   -0.00011510   -0.00003508
     atom   27 type  1   force =     0.00014998    0.00001319   -0.00004703
     atom   28 type  1   force =     0.00032566   -0.00025058    0.00052021
     atom   29 type  1   force =    -0.00000962   -0.00017082    0.00038420
     atom   30 type  1   force =     0.00019090   -0.00054269   -0.00011319
     atom   31 type  1   force =     0.00078394    0.00005587    0.00006651
     atom   32 type  1   force =     0.00085346   -0.00084514    0.00036897

     Total force =     0.003827     Total SCF correction =     0.000388
     SCF correction compared to forces is large: reduce conv_thr to get better values
     Energy error            =      3.0E-05 Ry
     Gradient error          =      1.1E-03 Ry/Bohr

     number of scf cycles    =   3
     number of bfgs steps    =   2

     energy             old  =   -5714.8679957634 Ry
     energy             new  =   -5714.8680262305 Ry

     CASE: energy            _new < energy            _old

     new trust radius        =       0.0031709139 bohr
     new conv_thr            =       0.0000000100 Ry


ATOMIC_POSITIONS (angstrom)
Ge           -0.7076424071        3.5433770391        5.3978002172
Ge            1.5059988643        4.2874720459        6.2456490040
Ge            3.2242097819       -0.3867706279        4.5456031414
Ge            4.2316422808        1.3341964824        6.2389374259
Ge            0.0612231805        0.0533966708        7.7731064535
Ge            1.4573859540        1.3980757698        9.3054786199
Ge            2.7989682071        2.7939300121        7.7658961403
Ge            4.2386570645        4.2893815784        9.1603961882
Ge            5.6523185759        2.8702575918       10.6118589727
Ge            1.3726477781        4.2088937002       12.1443942018
Ge            2.8699372181       -0.0227292145       10.7562145136
Ge            4.3124325481        1.4707496167       12.1512650959
Ge            5.6008161362       -0.0214558342       13.6802401310
Ge            2.1387835278        0.7224260425       14.5231321132
Ge            2.8741544958        2.9336194166       13.6737281710
Ge            3.8719584683        4.6557397400       15.3725324952
Ge            4.9645312702        3.5522514607        5.3989856699
Ge            7.1806678072        4.2874455663        6.2499020568
Ge            8.9034782041       -0.3880439530        4.5532216583
Ge            9.9073760402        1.3307735128        6.2491101461
Ge            5.7328358682        0.0581200853        7.7693730186
Ge            7.1269308687        1.3953640810        9.3101634740
Ge            8.4707619983        2.7908813994        7.7726488231
Ge            9.9107524112        4.2895998399        9.1630194292
Ge           -0.0207837386        2.8688239506       10.6063365691
Ge            7.0463766678        4.2083540875       12.1528733150
Ge            8.5418304123       -0.0236965890       10.7603900380
Ge            9.9876342942        1.4741171288       12.1458522768
Ge           -0.0711450198       -0.0205245413       13.6679291019
Ge            7.8161907159        0.7185580803       14.5225757943
Ge            8.5526502824        2.9306056600       13.6748667161
Ge            9.5550839662        4.6568241458       15.3662183176



     Writing output data file ./out/ge.save/
     NEW-OLD atomic charge density approx. for the potential

     total cpu time spent up to now is      103.1 secs

     Self-consistent Calculation

     iteration #  1     ecut=    60.00 Ry     beta= 0.40
     Davidson diagonalization with overlap
     ethr =  1.00E-06,  avg # of iterations =  3.0

     Threshold (ethr) on eigenvalues was too large:
     Diagonalizing with lowered threshold

     Davidson diagonalization with overlap
     ethr =  1.02E-09,  avg # of iterations =  4.0

     total cpu time spent up to now is      112.2 secs

     total energy              =   -5714.86805732 Ry
     estimated scf accuracy    <       0.00000382 Ry

     iteration #  2     ecut=    60.00 Ry     beta= 0.40
     Davidson diagonalization with overlap
     ethr =  8.52E-10,  avg # of iterations =  2.0

     total cpu time spent up to now is      115.1 secs

     total energy              =   -5714.86805230 Ry
     estimated scf accuracy    <       0.00016288 Ry

     iteration #  3     ecut=    60.00 Ry     beta= 0.40
     Davidson diagonalization with overlap
     ethr =  8.52E-10,  avg # of iterations =  2.0

     total cpu time spent up to now is      117.9 secs

     total energy              =   -5714.86805810 Ry
     estimated scf accuracy    <       0.00000557 Ry

     iteration #  4     ecut=    60.00 Ry     beta= 0.40
     Davidson diagonalization with overlap
     ethr =  8.52E-10,  avg # of iterations =  2.0

     total cpu time spent up to now is      120.7 secs

     total energy              =   -5714.86805828 Ry
     estimated scf accuracy    <       0.00000173 Ry

     iteration #  5     ecut=    60.00 Ry     beta= 0.40
     Davidson diagonalization with overlap
     ethr =  3.85E-10,  avg # of iterations =  2.0

     total cpu time spent up to now is      123.5 secs

     total energy              =   -5714.86805847 Ry
     estimated scf accuracy    <       0.00000047 Ry

     iteration #  6     ecut=    60.00 Ry     beta= 0.40
     Davidson diagonalization with overlap
     ethr =  1.05E-10,  avg # of iterations =  2.0

     total cpu time spent up to now is      126.4 secs

     total energy              =   -5714.86805852 Ry
     estimated scf accuracy    <       0.00000007 Ry

     iteration #  7     ecut=    60.00 Ry     beta= 0.40
     Davidson diagonalization with overlap
     ethr =  1.66E-11,  avg # of iterations =  2.5

     total cpu time spent up to now is      129.3 secs

     total energy              =   -5714.86805853 Ry
     estimated scf accuracy    <       0.00000002 Ry

     iteration #  8     ecut=    60.00 Ry     beta= 0.40
     Davidson diagonalization with overlap
     ethr =  4.80E-12,  avg # of iterations =  2.0

     total cpu time spent up to now is      132.1 secs

     End of self-consistent calculation

          k = 0.0000 0.0000 0.0000 ( 67991 PWs)   bands (ev):

   -21.5294 -21.5248 -21.5241 -21.5231 -21.4912 -21.4870 -21.4861 -21.4847
   -21.4533 -21.4484 -21.4478 -21.4466 -21.4202 -21.4166 -21.4154 -21.4150
   -21.3902 -21.3866 -21.3853 -21.3849 -21.3158 -21.3129 -21.3115 -21.3090
   -21.3089 -21.3080 -21.3074 -21.3066 -21.3042 -21.3025 -21.2994 -21.2966
   -21.2954 -21.2953 -21.2938 -21.2902 -21.2815 -21.2743 -21.2737 -21.2716
   -21.2692 -21.2672 -21.2659 -21.2648 -21.2623 -21.2503 -21.2475 -21.2366
   -21.2332 -21.2243 -21.2241 -21.2211 -21.2209 -21.2182 -21.2171 -21.2164
   -21.2125 -21.2110 -21.2104 -21.2066 -21.2050 -21.1989 -21.1968 -21.1935
   -21.1891 -21.1876 -21.1874 -21.1838 -21.1834 -21.1805 -21.1763 -21.1746
   -21.1738 -21.1724 -21.1679 -21.1675 -21.1668 -21.1659 -21.1632 -21.1625
   -21.1615 -21.1599 -21.1520 -21.1515 -21.1468 -21.1464 -21.1440 -21.1415
   -21.1412 -21.1380 -21.1366 -21.1366 -21.1320 -21.1303 -21.1293 -21.1276
   -21.1269 -21.1255 -21.1249 -21.1195 -21.1162 -21.1144 -21.1097 -21.1081
   -21.1073 -21.1028 -21.0994 -21.0980 -21.0916 -21.0897 -21.0867 -21.0790
   -21.0756 -21.0725 -21.0717 -21.0704 -21.0641 -21.0629 -21.0600 -21.0579
   -21.0559 -21.0400 -21.0389 -21.0382 -21.0300 -21.0282 -21.0224 -21.0178
   -21.0081 -21.0066 -20.9955 -20.9931 -20.9884 -20.9865 -20.9837 -20.9804
   -20.9791 -20.9787 -20.9750 -20.9742 -20.9727 -20.9718 -20.9708 -20.9699
   -20.9615 -20.9597 -20.9494 -20.9479 -20.9446 -20.9388 -20.9377 -20.9366
   -20.9360 -20.9344 -20.9320 -20.9308 -20.9296 -20.9284 -20.9277 -20.9263
    -8.6969  -8.1895  -7.7794  -7.7264  -7.3512  -7.2734  -7.1273  -6.4705
    -6.2152  -5.9404  -5.4515  -5.1194  -5.0526  -5.0509  -5.0463  -5.0260
    -4.8523  -4.8466  -4.5058  -4.4802  -4.0722  -3.7857  -3.6838  -3.6537
    -3.1274  -2.8108  -2.6318  -2.0701  -1.5214  -1.2248  -1.1780  -0.3333
    -0.2686  -0.2226  -0.2174  -0.0686   0.0125   0.0523   0.1735   0.3822
     0.6205   0.7313   0.7448   0.8523   0.9073   1.0514   1.1178   1.1223
     1.4314   1.5400   1.6267   1.6619   1.6705   1.7811   1.8452   1.9445
     2.0517   2.2264   2.3498   2.4521   2.7358   2.7490   2.9962   3.0314
     3.1908   3.5166   4.0110   4.1166   4.4215   4.5983   4.7572   4.7837
     4.9356   5.0178   5.0620   5.0956   5.1524   5.2893   5.4624   5.4743
     5.6888   5.7129   5.7603   5.9131   6.0593   6.1010   6.1173   6.3475
     6.5135   6.6436   6.6699   6.6751   6.8080   7.1024   7.1118   7.1323
     7.4393   7.4492   7.6086   7.8169   7.8696   8.1593   8.2231   8.2767
     8.3039   8.4312   8.4723   8.4906   8.4989

          k = 0.0000-1.0000 0.0000 ( 67998 PWs)   bands (ev):

   -21.5301 -21.5255 -21.5247 -21.5237 -21.4931 -21.4889 -21.4878 -21.4866
   -21.4545 -21.4497 -21.4490 -21.4477 -21.4201 -21.4165 -21.4152 -21.4150
   -21.3909 -21.3875 -21.3857 -21.3854 -21.3169 -21.3148 -21.3140 -21.3127
   -21.3112 -21.3089 -21.3061 -21.3038 -21.3033 -21.3023 -21.3019 -21.2967
   -21.2950 -21.2928 -21.2875 -21.2834 -21.2819 -21.2805 -21.2797 -21.2743
   -21.2735 -21.2692 -21.2665 -21.2631 -21.2545 -21.2367 -21.2364 -21.2340
   -21.2324 -21.2284 -21.2277 -21.2235 -21.2205 -21.2199 -21.2190 -21.2183
   -21.2175 -21.2136 -21.2112 -21.2087 -21.2084 -21.2058 -21.2053 -21.2034
   -21.1998 -21.1859 -21.1839 -21.1833 -21.1823 -21.1803 -21.1785 -21.1762
   -21.1750 -21.1731 -21.1695 -21.1691 -21.1689 -21.1684 -21.1646 -21.1628
   -21.1621 -21.1610 -21.1601 -21.1526 -21.1516 -21.1485 -21.1421 -21.1381
   -21.1353 -21.1332 -21.1316 -21.1314 -21.1307 -21.1273 -21.1237 -21.1230
   -21.1181 -21.1175 -21.1159 -21.1147 -21.1124 -21.1088 -21.1080 -21.1077
   -21.1029 -21.1006 -21.0984 -21.0968 -21.0937 -21.0908 -21.0895 -21.0847
   -21.0756 -21.0736 -21.0730 -21.0709 -21.0679 -21.0635 -21.0583 -21.0579
   -21.0510 -21.0462 -21.0438 -21.0425 -21.0386 -21.0278 -21.0232 -21.0210
   -21.0112 -21.0068 -20.9967 -20.9883 -20.9862 -20.9834 -20.9813 -20.9801
   -20.9784 -20.9776 -20.9746 -20.9740 -20.9733 -20.9728 -20.9719 -20.9709
   -20.9699 -20.9603 -20.9512 -20.9480 -20.9460 -20.9400 -20.9386 -20.9379
   -20.9371 -20.9357 -20.9330 -20.9320 -20.9303 -20.9294 -20.9284 -20.9272
    -7.7791  -7.7252  -7.3489  -7.1304  -7.0558  -7.0237  -6.9740  -6.9372
    -6.8516  -6.4666  -6.3673  -6.3114  -6.2209  -5.8397  -5.7725  -5.4516
    -5.1221  -4.5080  -4.0699  -3.6543  -3.5296  -3.4502  -3.3501  -3.2563
    -3.1214  -3.0225  -2.6308  -2.1005  -2.0695  -1.7259  -1.5228  -1.1863
    -0.3306  -0.2137  -0.1364  -0.0653   0.0113   0.2949   0.3846   0.5992
     0.7341   0.7387   0.7452   0.9456   1.0513   1.5380   1.6607   1.6724
     1.7230   1.7293   1.7759   1.9758   1.9927   2.0084   2.0507   2.3447
     2.3515   2.3574   2.3669   2.4526   2.7449   2.7551   3.2388   3.3183
     3.4206   4.0053   4.0130   4.1176   4.4915   4.5676   4.6265   4.7514
     4.8972   4.9062   5.0864   5.1525   5.4749   5.4948   5.7202   5.7907
     5.9137   6.0529   6.3506   6.3626   6.6691   6.6788   6.6912   6.9308
     7.0668   7.0768   7.1144   7.1270   7.2590   7.3079   7.3139   7.3968
     7.6051   7.6357   7.6900   7.8209   7.8366   7.8675   7.9110   8.0596
     8.1535   8.2275   8.2703   8.3058   8.4349

     the Fermi energy is     3.2877 ev

!    total energy              =   -5714.86805853 Ry
     estimated scf accuracy    <          3.7E-09 Ry
     smearing contrib. (-TS)   =      -0.00822215 Ry
     internal energy E=F+TS    =   -5714.85983638 Ry

     The total energy is F=E-TS. E is the sum of the following terms:
     one-electron contribution =  -15230.35026776 Ry
     hartree contribution      =    7822.85745037 Ry
     xc contribution           =   -1394.58921716 Ry
     ewald contribution        =    3087.22219817 Ry

     convergence has been achieved in   8 iterations

     Forces acting on atoms (cartesian axes, Ry/au):

     atom    1 type  1   force =    -0.00047768    0.00059399    0.00009652
     atom    2 type  1   force =    -0.00055720    0.00013611   -0.00024565
     atom    3 type  1   force =    -0.00013493    0.00039871    0.00016798
     atom    4 type  1   force =    -0.00030562    0.00030658   -0.00004468
     atom    5 type  1   force =    -0.00029414    0.00056597   -0.00022203
     atom    6 type  1   force =    -0.00002324   -0.00010129    0.00019187
     atom    7 type  1   force =    -0.00059705    0.00002788    0.00008501
     atom    8 type  1   force =    -0.00013189    0.00005476    0.00003338
     atom    9 type  1   force =    -0.00010435   -0.00017696    0.00008698
     atom   10 type  1   force =     0.00026441   -0.00016112    0.00027018
     atom   11 type  1   force =     0.00017784    0.00000911    0.00022458
     atom   12 type  1   force =     0.00019726    0.00002647    0.00025243
     atom   13 type  1   force =     0.00019231   -0.00034770   -0.00030200
     atom   14 type  1   force =     0.00026543   -0.00052507   -0.00023934
     atom   15 type  1   force =     0.00065674   -0.00015620    0.00004902
     atom   16 type  1   force =     0.00068166   -0.00052306    0.00013727
     atom   17 type  1   force =     0.00007252   -0.00008033   -0.00041893
     atom   18 type  1   force =    -0.00031126    0.00012672   -0.00041584
     atom   19 type  1   force =    -0.00045489    0.00019823   -0.00024770
     atom   20 type  1   force =    -0.00046114    0.00055065   -0.00039561
     atom   21 type  1   force =    -0.00017115    0.00034338    0.00000083
     atom   22 type  1   force =     0.00005774    0.00034391    0.00018113
     atom   23 type  1   force =    -0.00052644    0.00037557   -0.00037048
     atom   24 type  1   force =    -0.00000162   -0.00011237   -0.00015255
     atom   25 type  1   force =    -0.00023104    0.00001318    0.00015467
     atom   26 type  1   force =     0.00022841   -0.00007013    0.00010057
     atom   27 type  1   force =     0.00016530   -0.00009283    0.00003925
     atom   28 type  1   force =     0.00024788   -0.00024312    0.00041654
     atom   29 type  1   force =     0.00001917   -0.00031624    0.00027963
     atom   30 type  1   force =     0.00037193   -0.00040299   -0.00006409
     atom   31 type  1   force =     0.00048530   -0.00005685    0.00001980
     atom   32 type  1   force =     0.00069973   -0.00070495    0.00033125

     Total force =     0.003029     Total SCF correction =     0.000361
     SCF correction compared to forces is large: reduce conv_thr to get better values
     Energy error            =      3.2E-05 Ry
     Gradient error          =      7.0E-04 Ry/Bohr

     bfgs converged in   4 scf cycles and   3 bfgs steps
     (criteria: energy <  1.0E-04 Ry, force <  1.0E-03 Ry/Bohr)

     End of BFGS Geometry Optimization

     Final energy             =   -5714.8680585308 Ry

     File ./out/ge.bfgs deleted, as requested
Begin final coordinates

ATOMIC_POSITIONS (angstrom)
Ge           -0.7076424071        3.5433770391        5.3978002172
Ge            1.5059988643        4.2874720459        6.2456490040
Ge            3.2242097819       -0.3867706279        4.5456031414
Ge            4.2316422808        1.3341964824        6.2389374259
Ge            0.0612231805        0.0533966708        7.7731064535
Ge            1.4573859540        1.3980757698        9.3054786199
Ge            2.7989682071        2.7939300121        7.7658961403
Ge            4.2386570645        4.2893815784        9.1603961882
Ge            5.6523185759        2.8702575918       10.6118589727
Ge            1.3726477781        4.2088937002       12.1443942018
Ge            2.8699372181       -0.0227292145       10.7562145136
Ge            4.3124325481        1.4707496167       12.1512650959
Ge            5.6008161362       -0.0214558342       13.6802401310
Ge            2.1387835278        0.7224260425       14.5231321132
Ge            2.8741544958        2.9336194166       13.6737281710
Ge            3.8719584683        4.6557397400       15.3725324952
Ge            4.9645312702        3.5522514607        5.3989856699
Ge            7.1806678072        4.2874455663        6.2499020568
Ge            8.9034782041       -0.3880439530        4.5532216583
Ge            9.9073760402        1.3307735128        6.2491101461
Ge            5.7328358682        0.0581200853        7.7693730186
Ge            7.1269308687        1.3953640810        9.3101634740
Ge            8.4707619983        2.7908813994        7.7726488231
Ge            9.9107524112        4.2895998399        9.1630194292
Ge           -0.0207837386        2.8688239506       10.6063365691
Ge            7.0463766678        4.2083540875       12.1528733150
Ge            8.5418304123       -0.0236965890       10.7603900380
Ge            9.9876342942        1.4741171288       12.1458522768
Ge           -0.0711450198       -0.0205245413       13.6679291019
Ge            7.8161907159        0.7185580803       14.5225757943
Ge            8.5526502824        2.9306056600       13.6748667161
Ge            9.5550839662        4.6568241458       15.3662183176
End final coordinates



     Writing output data file ./out/ge.save/
 
     init_run     :      0.98s CPU      1.42s WALL (       1 calls)
     electrons    :     95.49s CPU    127.58s WALL (       4 calls)
     update_pot   :      0.32s CPU      0.35s WALL (       3 calls)
     forces       :      2.28s CPU      3.41s WALL (       4 calls)

     Called by init_run:
     wfcinit      :      0.73s CPU      1.06s WALL (       1 calls)
     potinit      :      0.05s CPU      0.06s WALL (       1 calls)
     hinit0       :      0.07s CPU      0.14s WALL (       1 calls)

     Called by electrons:
     c_bands      :     87.26s CPU    117.95s WALL (      38 calls)
     sum_band     :      7.63s CPU      8.65s WALL (      38 calls)
     v_of_rho     :      0.45s CPU      0.64s WALL (      38 calls)
     mix_rho      :      0.15s CPU      0.21s WALL (      38 calls)

     Called by c_bands:
     init_us_2    :      1.12s CPU      1.15s WALL (     162 calls)
     cegterg      :     82.75s CPU    113.31s WALL (      76 calls)

     Called by *egterg:
     cdiaghg      :      8.76s CPU     19.74s WALL (     365 calls)
     h_psi        :     42.09s CPU     48.00s WALL (     381 calls)
     g_psi        :      0.23s CPU      0.24s WALL (     303 calls)

     Called by h_psi:
     h_psi:calbec :      7.38s CPU      8.14s WALL (     381 calls)
     vloc_psi     :     28.70s CPU     33.64s WALL (     381 calls)
     add_vuspsi   :      5.53s CPU      5.59s WALL (     381 calls)

     General routines
     calbec       :      8.74s CPU     10.53s WALL (     413 calls)
     fft          :      0.35s CPU      0.61s WALL (     427 calls)
     ffts         :      0.02s CPU      0.03s WALL (      38 calls)
     fftw         :     32.66s CPU     38.18s WALL (  114820 calls)
 
     Parallel routines
 
     PWSCF        :   1m39.60s CPU   2m14.07s WALL

 
   This run was terminated on:  15:11:10  28Apr2025            

=------------------------------------------------------------------------------=
   JOB DONE.
=------------------------------------------------------------------------------=
