
     Program PWSCF v.6.8 starts on 28Apr2025 at 22:51: 5 

     This program is part of the open-source Quantum ESPRESSO suite
     for quantum simulation of materials; please cite
         "P. Giannozzi et al., J. Phys.:Condens. Matter 21 395502 (2009);
         "P. Giannozzi et al., J. Phys.:Condens. Matter 29 465901 (2017);
         "P. Giannozzi et al., J. Chem. Phys. 152 154105 (2020);
          URL http://www.quantum-espresso.org", 
     in publications or presentations arising from this work. More details at
     http://www.quantum-espresso.org/quote

     Parallel version (MPI & OpenMP), running on      56 processor cores
     Number of MPI processes:                56
     Threads/MPI process:                     1

     MPI processes distributed on     1 nodes
     R & G space division:  proc/nbgrp/npool/nimage =      56
     186323 MiB available memory on the printing compute node when the environment starts
 
     Reading input from surface_relax.in
Warning: card &CELL ignored
Warning: card / ignored
Warning: card &FCP ignored
Warning: card / ignored
Warning: card &RISM ignored
Warning: card / ignored

     Current dimensions of program PWSCF are:
     Max number of different atomic species (ntypx) = 10
     Max number of k-points (npk) =  40000
     Max angular momentum in pseudopotentials (lmaxx) =  4

     Subspace diagonalization in iterative solution of the eigenvalue problem:
     one sub-group per band group will be used
     scalapack distributed-memory algorithm (size of sub-group:  7*  7 procs)

 
     Parallelization info
     --------------------
     sticks:   dense  smooth     PW     G-vecs:    dense   smooth      PW
     Min          40      40     11                 5054     5054     748
     Max          41      41     12                 5071     5071     754
     Sum        2271    2271    645               283329   283329   42059
 
     Using Slab Decomposition
 


     bravais-lattice index     =            0
     lattice parameter (alat)  =      15.4202  a.u.
     unit-cell volume          =    4515.3380 (a.u.)^3
     number of atoms/cell      =           16
     number of atomic types    =            1
     number of electrons       =       224.00
     number of Kohn-Sham states=          134
     kinetic-energy cutoff     =      60.0000  Ry
     charge density cutoff     =     240.0000  Ry
     scf convergence threshold =      1.0E-06
     mixing beta               =       0.4000
     number of iterations used =            8  plain     mixing
     energy convergence thresh.=      1.0E-04
     force convergence thresh. =      1.0E-03
     Exchange-correlation= PBE
                           (   1   4   3   4   0   0   0)
     nstep                     =          100


     celldm(1)=  15.420188  celldm(2)=   0.000000  celldm(3)=   0.000000
     celldm(4)=   0.000000  celldm(5)=   0.000000  celldm(6)=   0.000000

     crystal axes: (cart. coord. in units of alat)
               a(1) = (   1.000000   0.000000   0.000000 )  
               a(2) = (   0.000000   0.500000   0.000000 )  
               a(3) = (   0.000000   0.000000   2.462925 )  

     reciprocal axes: (cart. coord. in units 2 pi/alat)
               b(1) = (  1.000000  0.000000  0.000000 )  
               b(2) = (  0.000000  2.000000  0.000000 )  
               b(3) = (  0.000000  0.000000  0.406021 )  


     PseudoPot. # 1 for Ge read from file:
     ./Ge.upf
     MD5 check sum: 087fa14d6c89b52166990835c3b338da
     Pseudo is Norm-conserving + core correction, Zval = 14.0
     Generated using ONCVPSP code by D. R. Hamann
     Using radial grid of 1560 points,  6 beta functions with: 
                l(1) =   0
                l(2) =   0
                l(3) =   1
                l(4) =   1
                l(5) =   2
                l(6) =   2

     atomic species   valence    mass     pseudopotential
        Ge            14.00    72.63000     Ge( 1.00)

     No symmetry found



   Cartesian axes

     site n.     atom                  positions (alat units)
         1           Ge  tau(   1) = (   0.0000735   0.0013984   0.6128769  )
         2           Ge  tau(   2) = (   0.2518326   0.0021790   0.7918341  )
         3           Ge  tau(   3) = (   0.2509326   0.2522102   0.9678801  )
         4           Ge  tau(   4) = (   0.0020590   0.2476808   1.1422038  )
         5           Ge  tau(   5) = (  -0.0012881  -0.0010927   1.3196907  )
         6           Ge  tau(   6) = (   0.2513693  -0.0008225   1.4961542  )
         7           Ge  tau(   7) = (   0.2516531   0.2496430   1.6740042  )
         8           Ge  tau(   8) = (   0.0002090   0.2493931   1.8483340  )
         9           Ge  tau(   9) = (   0.4978238  -0.0009346   0.6105285  )
        10           Ge  tau(  10) = (   0.7482506  -0.0000505   0.7900035  )
        11           Ge  tau(  11) = (   0.7489303   0.2482135   0.9641401  )
        12           Ge  tau(  12) = (   0.4986147   0.2483157   1.1440222  )
        13           Ge  tau(  13) = (   0.4983642   0.0015741   1.3200851  )
        14           Ge  tau(  14) = (   0.7524120   0.0021032   1.4976627  )
        15           Ge  tau(  15) = (   0.7501614   0.2493757   1.6723882  )
        16           Ge  tau(  16) = (   0.4997154   0.2509406   1.8516076  )

     number of k points=     6  Gaussian smearing, width (Ry)=  0.0100
                       cart. coord. in units 2pi/alat
        k(    1) = (   0.0000000   0.0000000   0.0000000), wk =   0.2500000
        k(    2) = (   0.0000000   0.5000000   0.0000000), wk =   0.5000000
        k(    3) = (   0.0000000  -1.0000000   0.0000000), wk =   0.2500000
        k(    4) = (  -0.5000000   0.0000000   0.0000000), wk =   0.2500000
        k(    5) = (  -0.5000000   0.5000000   0.0000000), wk =   0.5000000
        k(    6) = (  -0.5000000  -1.0000000   0.0000000), wk =   0.2500000

     Dense  grid:   283329 G-vectors     FFT dimensions: (  80,  40, 192)

     Estimated max dynamical RAM per process >      21.87 MB

     Estimated total dynamical RAM >       1.20 GB

     Initial potential from superposition of free atoms

     starting charge  223.98683, renormalised to  224.00000

     negative rho (up, down):  1.191E-05 0.000E+00
     Starting wfcs are  144 randomized atomic wfcs

     total cpu time spent up to now is        1.1 secs

     Self-consistent Calculation

     iteration #  1     ecut=    60.00 Ry     beta= 0.40
     Davidson diagonalization with overlap
     ethr =  1.00E-02,  avg # of iterations =  3.0

     Threshold (ethr) on eigenvalues was too large:
     Diagonalizing with lowered threshold

     Davidson diagonalization with overlap
     ethr =  2.34E-04,  avg # of iterations =  6.0

     negative rho (up, down):  3.487E-06 0.000E+00

     total cpu time spent up to now is        6.4 secs

     total energy              =   -2857.14381286 Ry
     estimated scf accuracy    <       0.57712234 Ry

     iteration #  2     ecut=    60.00 Ry     beta= 0.40
     Davidson diagonalization with overlap
     ethr =  2.58E-04,  avg # of iterations =  7.7

     negative rho (up, down):  1.929E-06 0.000E+00

     total cpu time spent up to now is        9.3 secs

     total energy              =   -2856.77072619 Ry
     estimated scf accuracy    <       6.05475527 Ry

     iteration #  3     ecut=    60.00 Ry     beta= 0.40
     Davidson diagonalization with overlap
     ethr =  2.58E-04,  avg # of iterations =  7.8

     negative rho (up, down):  2.763E-07 0.000E+00

     total cpu time spent up to now is       12.0 secs

     total energy              =   -2857.24194515 Ry
     estimated scf accuracy    <       0.33996445 Ry

     iteration #  4     ecut=    60.00 Ry     beta= 0.40
     Davidson diagonalization with overlap
     ethr =  1.52E-04,  avg # of iterations =  9.3

     negative rho (up, down):  2.247E-08 0.000E+00

     total cpu time spent up to now is       14.9 secs

     total energy              =   -2857.08962892 Ry
     estimated scf accuracy    <       6.80822512 Ry

     iteration #  5     ecut=    60.00 Ry     beta= 0.40
     Davidson diagonalization with overlap
     ethr =  1.52E-04,  avg # of iterations =  8.5

     total cpu time spent up to now is       17.4 secs

     total energy              =   -2857.28610885 Ry
     estimated scf accuracy    <       0.01988818 Ry

     iteration #  6     ecut=    60.00 Ry     beta= 0.40
     Davidson diagonalization with overlap
     ethr =  8.88E-06,  avg # of iterations =  8.8

     total cpu time spent up to now is       20.4 secs

     total energy              =   -2857.28780874 Ry
     estimated scf accuracy    <       0.00261847 Ry

     iteration #  7     ecut=    60.00 Ry     beta= 0.40
     Davidson diagonalization with overlap
     ethr =  1.17E-06,  avg # of iterations =  2.8

     total cpu time spent up to now is       22.4 secs

     total energy              =   -2857.28812364 Ry
     estimated scf accuracy    <       0.00193736 Ry

     iteration #  8     ecut=    60.00 Ry     beta= 0.40
     Davidson diagonalization with overlap
     ethr =  8.65E-07,  avg # of iterations =  1.8

     total cpu time spent up to now is       24.3 secs

     total energy              =   -2857.28832301 Ry
     estimated scf accuracy    <       0.00018925 Ry

     iteration #  9     ecut=    60.00 Ry     beta= 0.40
     Davidson diagonalization with overlap
     ethr =  8.45E-08,  avg # of iterations =  2.0

     total cpu time spent up to now is       26.2 secs

     total energy              =   -2857.28833678 Ry
     estimated scf accuracy    <       0.00010917 Ry

     iteration # 10     ecut=    60.00 Ry     beta= 0.40
     Davidson diagonalization with overlap
     ethr =  4.87E-08,  avg # of iterations =  2.0

     total cpu time spent up to now is       28.1 secs

     total energy              =   -2857.28835227 Ry
     estimated scf accuracy    <       0.00000588 Ry

     iteration # 11     ecut=    60.00 Ry     beta= 0.40
     Davidson diagonalization with overlap
     ethr =  2.62E-09,  avg # of iterations =  2.8

     total cpu time spent up to now is       30.1 secs

     total energy              =   -2857.28835313 Ry
     estimated scf accuracy    <       0.00000170 Ry

     iteration # 12     ecut=    60.00 Ry     beta= 0.40
     Davidson diagonalization with overlap
     ethr =  7.61E-10,  avg # of iterations =  2.0

     total cpu time spent up to now is       32.0 secs

     End of self-consistent calculation

          k = 0.0000 0.0000 0.0000 ( 35449 PWs)   bands (ev):

   -21.8670 -21.8606 -21.8537 -21.8395 -21.8373 -21.8246 -21.8220 -21.8134
   -21.8116 -21.8102 -21.8095 -21.7997 -21.7878 -21.7848 -21.7818 -21.7749
   -21.7693 -21.7509 -21.7478 -21.7462 -21.7348 -21.7241 -21.7058 -21.7038
   -21.7005 -21.6995 -21.6975 -21.6951 -21.6825 -21.6803 -21.6669 -21.6618
   -21.6454 -21.6415 -21.6383 -21.6330 -21.6308 -21.6306 -21.6285 -21.6268
   -21.6234 -21.6215 -21.6190 -21.6164 -21.6143 -21.6092 -21.6086 -21.6069
   -21.6040 -21.5991 -21.5835 -21.5716 -21.5697 -21.5658 -21.5630 -21.5559
   -21.5412 -21.5387 -21.5211 -21.5179 -21.4401 -21.4296 -21.4161 -21.4129
   -21.4112 -21.4019 -21.3973 -21.3907 -21.3756 -21.3728 -21.3690 -21.3663
   -21.3658 -21.3623 -21.3595 -21.3537 -21.3291 -21.3269 -21.3179 -21.3132
    -9.0388  -8.3711  -7.4369  -7.3877  -7.3486  -7.2713  -6.0931  -5.1684
    -5.1003  -4.5234  -3.9279  -3.7571  -3.4350  -2.7067  -0.7729  -0.0100
     0.1035   0.4359   0.4567   1.0881   1.1456   1.1559   1.2440   1.4082
     1.7083   1.7607   1.8167   1.9673   2.1738   2.3422   2.7687   3.2545
     3.7168   3.9609   4.0005   4.3123   4.3568   4.5014   4.6498   4.6681
     4.9320   4.9615   4.9812   5.0227   5.2072   5.4006   6.2731   6.7542
     6.7928   6.9795   7.1498   7.1818   7.2868   7.3549

          k = 0.0000 0.5000 0.0000 ( 35445 PWs)   bands (ev):

   -21.8693 -21.8648 -21.8570 -21.8490 -21.8427 -21.8337 -21.8262 -21.8164
   -21.8052 -21.7985 -21.7982 -21.7954 -21.7862 -21.7830 -21.7795 -21.7631
   -21.7592 -21.7463 -21.7426 -21.7374 -21.7338 -21.7275 -21.7035 -21.7002
   -21.6949 -21.6937 -21.6904 -21.6868 -21.6800 -21.6770 -21.6757 -21.6682
   -21.6604 -21.6583 -21.6478 -21.6434 -21.6406 -21.6370 -21.6336 -21.6312
   -21.6287 -21.6271 -21.6196 -21.6152 -21.6099 -21.6088 -21.6062 -21.6038
   -21.5996 -21.5950 -21.5853 -21.5688 -21.5648 -21.5636 -21.5602 -21.5485
   -21.5417 -21.5397 -21.5223 -21.5191 -21.4467 -21.4361 -21.4252 -21.4184
   -21.4068 -21.3968 -21.3948 -21.3877 -21.3793 -21.3696 -21.3686 -21.3664
   -21.3648 -21.3627 -21.3570 -21.3565 -21.3286 -21.3251 -21.3125 -21.3084
    -8.5796  -7.9621  -7.0917  -6.9405  -6.8695  -6.7818  -6.2621  -4.9669
    -4.9096  -4.3073  -4.1637  -4.0859  -3.9094  -3.1637  -2.0786  -1.1548
    -0.3473  -0.3150  -0.1708   0.1717   0.2107   0.5013   0.8144   0.8568
     0.9262   1.3887   1.9314   1.9713   2.0876   2.1146   2.5837   2.6200
     2.9128   3.2679   3.4647   3.7493   4.4815   4.6690   4.7883   4.9665
     5.0928   5.2285   5.6321   5.7817   6.0166   6.5847   6.7087   6.8534
     6.9141   7.4958   7.5249   7.6039   7.6464   8.0614

          k = 0.0000-1.0000 0.0000 ( 35284 PWs)   bands (ev):

   -21.8693 -21.8657 -21.8569 -21.8485 -21.8361 -21.8332 -21.8258 -21.8205
   -21.7934 -21.7879 -21.7860 -21.7846 -21.7763 -21.7731 -21.7680 -21.7613
   -21.7468 -21.7439 -21.7425 -21.7422 -21.7373 -21.7325 -21.7074 -21.7054
   -21.6859 -21.6852 -21.6783 -21.6762 -21.6755 -21.6741 -21.6698 -21.6697
   -21.6613 -21.6594 -21.6565 -21.6542 -21.6473 -21.6440 -21.6318 -21.6308
   -21.6306 -21.6272 -21.6172 -21.6150 -21.6089 -21.6087 -21.6026 -21.5965
   -21.5892 -21.5877 -21.5799 -21.5754 -21.5667 -21.5628 -21.5509 -21.5462
   -21.5408 -21.5393 -21.5222 -21.5192 -21.4365 -21.4257 -21.4231 -21.4123
   -21.4086 -21.4036 -21.4007 -21.3972 -21.3810 -21.3715 -21.3654 -21.3630
   -21.3616 -21.3579 -21.3569 -21.3486 -21.3272 -21.3240 -21.3035 -21.2999
    -7.4493  -7.4036  -7.0220  -6.9841  -5.6585  -5.5850  -5.5666  -5.4892
    -5.3700  -5.3504  -4.7193  -4.6883  -3.9397  -3.8823  -2.8166  -2.7786
    -0.2883  -0.2706  -0.2429  -0.2305   0.0384   0.0542   0.1810   0.1861
     1.6870   1.7188   1.8078   1.8206   1.8887   1.9040   2.0247   2.0847
     2.3596   2.3723   2.8508   2.8572   4.5531   4.5769   4.6187   4.6667
     5.0653   5.0933   5.2674   5.2706   6.1974   6.2238   7.0973   7.1346
     7.2107   7.2478   7.6090   7.6382   8.0035   8.0510

          k =-0.5000 0.0000 0.0000 ( 35510 PWs)   bands (ev):

   -21.8763 -21.8692 -21.8569 -21.8519 -21.8398 -21.8266 -21.8190 -21.8138
   -21.8092 -21.8008 -21.7995 -21.7978 -21.7930 -21.7887 -21.7729 -21.7686
   -21.7647 -21.7604 -21.7422 -21.7396 -21.7326 -21.7295 -21.7262 -21.7195
   -21.7009 -21.7003 -21.6953 -21.6870 -21.6858 -21.6853 -21.6813 -21.6739
   -21.6486 -21.6439 -21.6369 -21.6346 -21.6315 -21.6300 -21.6297 -21.6270
   -21.6245 -21.6197 -21.6175 -21.6156 -21.6150 -21.6114 -21.6099 -21.6083
   -21.5967 -21.5898 -21.5885 -21.5843 -21.5745 -21.5685 -21.5649 -21.5590
   -21.5317 -21.5299 -21.5182 -21.5159 -21.4320 -21.4224 -21.4176 -21.4132
   -21.4109 -21.4016 -21.3987 -21.3914 -21.3837 -21.3832 -21.3773 -21.3757
   -21.3751 -21.3676 -21.3614 -21.3553 -21.3196 -21.3186 -21.3162 -21.3122
    -8.5945  -8.5568  -7.9537  -7.9441  -7.0583  -7.0378  -5.6266  -5.5742
    -4.9318  -4.9162  -3.5153  -3.4836  -2.2278  -2.2108  -1.1119  -1.0718
    -0.5803  -0.5614   0.3639   0.4113   0.8286   0.8531   1.4193   1.4649
     1.6158   1.6364   2.0628   2.0746   2.2031   2.2538   2.6894   2.7295
     4.1386   4.1597   4.4619   4.5019   4.6196   4.6641   4.7862   4.8113
     4.9346   4.9408   6.0780   6.0869   6.3939   6.4421   6.6971   6.7434
     6.9862   7.0109   7.4291   7.4695   7.5419   7.5902

          k =-0.5000 0.5000 0.0000 ( 35426 PWs)   bands (ev):

   -21.8754 -21.8688 -21.8629 -21.8563 -21.8431 -21.8337 -21.8228 -21.8197
   -21.8027 -21.7952 -21.7907 -21.7854 -21.7782 -21.7736 -21.7680 -21.7642
   -21.7582 -21.7542 -21.7360 -21.7343 -21.7311 -21.7287 -21.7080 -21.7020
   -21.6974 -21.6954 -21.6951 -21.6889 -21.6832 -21.6806 -21.6748 -21.6694
   -21.6678 -21.6632 -21.6462 -21.6429 -21.6366 -21.6334 -21.6318 -21.6304
   -21.6290 -21.6266 -21.6192 -21.6157 -21.6111 -21.6090 -21.6046 -21.6015
   -21.5930 -21.5873 -21.5861 -21.5828 -21.5753 -21.5682 -21.5578 -21.5510
   -21.5294 -21.5283 -21.5165 -21.5143 -21.4395 -21.4296 -21.4248 -21.4181
   -21.4106 -21.3993 -21.3992 -21.3907 -21.3787 -21.3760 -21.3751 -21.3704
   -21.3685 -21.3666 -21.3611 -21.3552 -21.3177 -21.3163 -21.3136 -21.3095
    -8.1301  -8.0902  -7.5261  -7.5200  -6.7053  -6.6886  -5.7693  -5.7156
    -4.7306  -4.7029  -3.6716  -3.6379  -2.6433  -2.6310  -1.9325  -1.8778
    -0.6112  -0.5933  -0.5549  -0.5488   0.1808   0.1870   0.3870   0.3975
     1.0894   1.1043   1.4215   1.4382   2.3673   2.4061   2.4477   2.4766
     3.1467   3.1617   3.4907   3.5025   5.1887   5.2271   5.5576   5.5914
     6.1189   6.1496   6.4246   6.4512   6.8127   6.8353   7.0348   7.0635
     7.6317   7.6479   7.6582   7.6675   7.9565   7.9763

          k =-0.5000-1.0000 0.0000 ( 35380 PWs)   bands (ev):

   -21.8742 -21.8687 -21.8676 -21.8604 -21.8346 -21.8286 -21.8228 -21.8200
   -21.7947 -21.7878 -21.7825 -21.7781 -21.7638 -21.7609 -21.7581 -21.7576
   -21.7561 -21.7525 -21.7508 -21.7472 -21.7210 -21.7184 -21.7169 -21.7154
   -21.6917 -21.6908 -21.6897 -21.6886 -21.6844 -21.6836 -21.6743 -21.6741
   -21.6590 -21.6578 -21.6561 -21.6549 -21.6463 -21.6427 -21.6331 -21.6307
   -21.6297 -21.6276 -21.6125 -21.6122 -21.6072 -21.6045 -21.6011 -21.5994
   -21.5974 -21.5900 -21.5883 -21.5846 -21.5670 -21.5610 -21.5585 -21.5559
   -21.5287 -21.5283 -21.5161 -21.5146 -21.4297 -21.4237 -21.4189 -21.4172
   -21.4125 -21.4111 -21.4088 -21.4033 -21.3803 -21.3712 -21.3705 -21.3688
   -21.3644 -21.3640 -21.3619 -21.3580 -21.3149 -21.3125 -21.3094 -21.3053
    -6.9926  -6.9397  -6.9317  -6.8685  -6.5276  -6.5127  -6.5014  -6.4666
    -4.2395  -4.1847  -4.1765  -4.1057  -3.3345  -3.3162  -3.3074  -3.2737
    -0.3237  -0.3145  -0.2880  -0.2745  -0.0420  -0.0208  -0.0162   0.0013
     0.7711   0.7992   0.8084   0.8274   2.2909   2.3139   2.3283   2.3396
     2.4709   2.4878   2.4954   2.5040   5.0292   5.0553   5.0700   5.0918
     5.8838   5.9008   5.9147   5.9445   6.9899   7.0213   7.0343   7.0781
     7.4365   7.4492   7.4637   7.4833   8.3886   8.4347

     the Fermi energy is     2.6167 ev

!    total energy              =   -2857.28835315 Ry
     estimated scf accuracy    <       0.00000069 Ry
     smearing contrib. (-TS)   =      -0.00614666 Ry
     internal energy E=F+TS    =   -2857.28220649 Ry

     The total energy is F=E-TS. E is the sum of the following terms:
     one-electron contribution =   -7674.49213393 Ry
     hartree contribution      =    3937.49964516 Ry
     xc contribution           =    -697.03096962 Ry
     ewald contribution        =    1576.74125190 Ry

     convergence has been achieved in  12 iterations

     Forces acting on atoms (cartesian axes, Ry/au):

     atom    1 type  1   force =     0.00094081   -0.00001570   -0.00406422
     atom    2 type  1   force =    -0.00446505   -0.00024179    0.00445152
     atom    3 type  1   force =    -0.00063580   -0.00075886   -0.00377403
     atom    4 type  1   force =    -0.00866788    0.00371826    0.00647218
     atom    5 type  1   force =     0.00709143   -0.00298753   -0.00692373
     atom    6 type  1   force =    -0.00742908    0.00134108    0.00230176
     atom    7 type  1   force =    -0.00140505   -0.00107954   -0.01062191
     atom    8 type  1   force =     0.00069851    0.00001323    0.00859840
     atom    9 type  1   force =     0.00337163   -0.00029138   -0.00663031
     atom   10 type  1   force =     0.00001785   -0.00444943    0.00107179
     atom   11 type  1   force =     0.00216130    0.00452121    0.00856145
     atom   12 type  1   force =     0.00601086    0.00909308    0.00481373
     atom   13 type  1   force =     0.00968415   -0.00899436   -0.00364159
     atom   14 type  1   force =    -0.00844198   -0.00696936   -0.00530368
     atom   15 type  1   force =    -0.00290494    0.00677829   -0.00336639
     atom   16 type  1   force =     0.00397325    0.00032280    0.00805502

     Total force =     0.036909     Total SCF correction =     0.004968
     SCF correction compared to forces is large: reduce conv_thr to get better values

     BFGS Geometry Optimization
     Energy error            =      0.0E+00 Ry
     Gradient error          =      1.1E-02 Ry/Bohr

     number of scf cycles    =   1
     number of bfgs steps    =   0

     energy             new  =   -2857.2883531524 Ry

     new trust radius        =       0.0137092177 bohr
     new conv_thr            =       0.0000010000 Ry


ATOMIC_POSITIONS (angstrom)
Ge            0.0010975506        0.0114029074        4.9989325572
Ge            2.0525944446        0.0176527984        6.4637318596
Ge            2.0472767276        2.0576364655        7.8959162949
Ge            0.0122142370        2.0230457407        9.3238215747
Ge           -0.0067580377       -0.0104977405       10.7650280659
Ge            2.0472455290       -0.0060015778       12.2098550407
Ge            2.0527490950        2.0365184148       13.6542740845
Ge            0.0020751719        2.0350576636       15.0869780307
Ge            4.0640323820       -0.0077806219        4.9784118432
Ge            6.1057436963       -0.0027669244        6.4470052435
Ge            6.1124239884        2.0278177377        7.8719257195
Ge            4.0718825115        2.0310709840        9.3377822070
Ge            4.0717823959        0.0080853073       10.7699833574
Ge            6.1352241196        0.0134739341       12.2181396971
Ge            6.1197889259        2.0384953052       13.6449270195
Ge            4.0797861272        2.0478493735       15.1134029851



     Writing output data file ./out/ge.save/
     NEW-OLD atomic charge density approx. for the potential

     total cpu time spent up to now is       32.7 secs

     Self-consistent Calculation

     iteration #  1     ecut=    60.00 Ry     beta= 0.40
     Davidson diagonalization with overlap
     ethr =  1.00E-06,  avg # of iterations =  4.0

     Threshold (ethr) on eigenvalues was too large:
     Diagonalizing with lowered threshold

     Davidson diagonalization with overlap
     ethr =  6.72E-08,  avg # of iterations =  4.0

     total cpu time spent up to now is       38.4 secs

     total energy              =   -2857.28945378 Ry
     estimated scf accuracy    <       0.00015200 Ry

     iteration #  2     ecut=    60.00 Ry     beta= 0.40
     Davidson diagonalization with overlap
     ethr =  6.79E-08,  avg # of iterations =  3.8

     total cpu time spent up to now is       40.6 secs

     total energy              =   -2857.28909940 Ry
     estimated scf accuracy    <       0.01226880 Ry

     iteration #  3     ecut=    60.00 Ry     beta= 0.40
     Davidson diagonalization with overlap
     ethr =  6.79E-08,  avg # of iterations =  3.0

     total cpu time spent up to now is       42.7 secs

     total energy              =   -2857.28951405 Ry
     estimated scf accuracy    <       0.00016746 Ry

     iteration #  4     ecut=    60.00 Ry     beta= 0.40
     Davidson diagonalization with overlap
     ethr =  6.79E-08,  avg # of iterations =  1.5

     total cpu time spent up to now is       44.5 secs

     total energy              =   -2857.28952740 Ry
     estimated scf accuracy    <       0.00002811 Ry

     iteration #  5     ecut=    60.00 Ry     beta= 0.40
     Davidson diagonalization with overlap
     ethr =  1.26E-08,  avg # of iterations =  2.0

     total cpu time spent up to now is       46.3 secs

     total energy              =   -2857.28952988 Ry
     estimated scf accuracy    <       0.00000677 Ry

     iteration #  6     ecut=    60.00 Ry     beta= 0.40
     Davidson diagonalization with overlap
     ethr =  3.02E-09,  avg # of iterations =  2.0

     total cpu time spent up to now is       48.3 secs

     total energy              =   -2857.28953074 Ry
     estimated scf accuracy    <       0.00000130 Ry

     iteration #  7     ecut=    60.00 Ry     beta= 0.40
     Davidson diagonalization with overlap
     ethr =  5.80E-10,  avg # of iterations =  2.0

     total cpu time spent up to now is       50.2 secs

     End of self-consistent calculation

          k = 0.0000 0.0000 0.0000 ( 35449 PWs)   bands (ev):

   -21.8673 -21.8608 -21.8553 -21.8415 -21.8393 -21.8289 -21.8224 -21.8147
   -21.8137 -21.8130 -21.8093 -21.7981 -21.7894 -21.7856 -21.7827 -21.7774
   -21.7693 -21.7516 -21.7500 -21.7469 -21.7352 -21.7251 -21.7071 -21.7049
   -21.7028 -21.7001 -21.6980 -21.6973 -21.6826 -21.6807 -21.6694 -21.6646
   -21.6457 -21.6419 -21.6405 -21.6362 -21.6317 -21.6303 -21.6293 -21.6266
   -21.6253 -21.6232 -21.6217 -21.6201 -21.6180 -21.6097 -21.6090 -21.6071
   -21.6050 -21.5980 -21.5854 -21.5740 -21.5676 -21.5659 -21.5646 -21.5595
   -21.5396 -21.5377 -21.5194 -21.5173 -21.4344 -21.4262 -21.4144 -21.4111
   -21.4068 -21.3979 -21.3957 -21.3912 -21.3692 -21.3682 -21.3665 -21.3646
   -21.3612 -21.3604 -21.3584 -21.3548 -21.3276 -21.3262 -21.3169 -21.3132
    -9.0410  -8.3636  -7.4401  -7.3821  -7.3532  -7.2705  -6.0839  -5.1570
    -5.0914  -4.5286  -3.9149  -3.7535  -3.4263  -2.7108  -0.7788  -0.0083
     0.1036   0.4367   0.4485   1.1012   1.1506   1.1535   1.2460   1.4049
     1.6924   1.7602   1.8120   1.9807   2.1662   2.3425   2.7810   3.2507
     3.7126   3.9591   4.0032   4.3116   4.3491   4.5058   4.6573   4.6674
     4.9358   4.9677   4.9855   5.0200   5.2094   5.4004   6.2635   6.7485
     6.7816   6.9650   7.1599   7.1817   7.2900   7.3565

          k = 0.0000 0.5000 0.0000 ( 35445 PWs)   bands (ev):

   -21.8696 -21.8649 -21.8579 -21.8522 -21.8446 -21.8380 -21.8274 -21.8192
   -21.8034 -21.8000 -21.7998 -21.7943 -21.7884 -21.7840 -21.7814 -21.7632
   -21.7611 -21.7467 -21.7425 -21.7376 -21.7354 -21.7301 -21.7038 -21.7021
   -21.6950 -21.6947 -21.6935 -21.6882 -21.6807 -21.6797 -21.6766 -21.6712
   -21.6628 -21.6611 -21.6482 -21.6444 -21.6437 -21.6398 -21.6346 -21.6308
   -21.6297 -21.6269 -21.6216 -21.6180 -21.6103 -21.6095 -21.6061 -21.6034
   -21.5986 -21.5979 -21.5875 -21.5665 -21.5656 -21.5636 -21.5633 -21.5513
   -21.5399 -21.5389 -21.5206 -21.5185 -21.4410 -21.4325 -21.4227 -21.4180
   -21.4017 -21.3935 -21.3928 -21.3879 -21.3730 -21.3662 -21.3653 -21.3630
   -21.3619 -21.3616 -21.3576 -21.3548 -21.3272 -21.3243 -21.3114 -21.3083
    -8.5811  -7.9542  -7.0828  -6.9454  -6.8714  -6.7807  -6.2536  -4.9553
    -4.9007  -4.3124  -4.1447  -4.0921  -3.9040  -3.1724  -2.0845  -1.1573
    -0.3498  -0.3240  -0.1838   0.1719   0.2105   0.5036   0.8191   0.8555
     0.9292   1.4010   1.9314   1.9681   2.1023   2.1128   2.5947   2.6218
     2.9058   3.2734   3.4685   3.7473   4.4917   4.6710   4.8000   4.9676
     5.0919   5.2197   5.6343   5.7842   6.0084   6.5770   6.7192   6.8614
     6.9086   7.4866   7.5249   7.5898   7.6463   8.0640

          k = 0.0000-1.0000 0.0000 ( 35284 PWs)   bands (ev):

   -21.8697 -21.8660 -21.8573 -21.8516 -21.8376 -21.8348 -21.8293 -21.8254
   -21.7908 -21.7877 -21.7865 -21.7860 -21.7770 -21.7748 -21.7692 -21.7648
   -21.7457 -21.7444 -21.7438 -21.7423 -21.7396 -21.7362 -21.7085 -21.7070
   -21.6858 -21.6850 -21.6809 -21.6791 -21.6782 -21.6770 -21.6702 -21.6697
   -21.6643 -21.6624 -21.6592 -21.6575 -21.6477 -21.6445 -21.6328 -21.6318
   -21.6302 -21.6270 -21.6193 -21.6178 -21.6095 -21.6091 -21.5997 -21.5956
   -21.5914 -21.5902 -21.5815 -21.5786 -21.5641 -21.5616 -21.5528 -21.5496
   -21.5390 -21.5386 -21.5205 -21.5187 -21.4310 -21.4227 -21.4175 -21.4090
   -21.4064 -21.4012 -21.4006 -21.3964 -21.3749 -21.3674 -21.3629 -21.3616
   -21.3603 -21.3575 -21.3534 -21.3465 -21.3256 -21.3235 -21.3021 -21.2997
    -7.4410  -7.4117  -7.0048  -6.9743  -5.6347  -5.5829  -5.5712  -5.5200
    -5.3611  -5.3452  -4.7062  -4.6815  -3.9389  -3.9018  -2.8205  -2.7914
    -0.2824  -0.2704  -0.2464  -0.2372   0.0413   0.0536   0.1847   0.1890
     1.6949   1.7151   1.8073   1.8188   1.8893   1.9006   2.0501   2.0981
     2.3640   2.3740   2.8437   2.8495   4.5588   4.5777   4.6196   4.6548
     5.0784   5.1014   5.2704   5.2740   6.1978   6.2192   7.1079   7.1330
     7.2192   7.2405   7.5996   7.6230   7.9961   8.0331

          k =-0.5000 0.0000 0.0000 ( 35510 PWs)   bands (ev):

   -21.8766 -21.8704 -21.8573 -21.8531 -21.8424 -21.8315 -21.8211 -21.8163
   -21.8071 -21.8015 -21.8012 -21.7970 -21.7953 -21.7911 -21.7716 -21.7699
   -21.7648 -21.7622 -21.7443 -21.7409 -21.7326 -21.7315 -21.7278 -21.7227
   -21.7007 -21.6998 -21.6963 -21.6905 -21.6857 -21.6852 -21.6827 -21.6776
   -21.6489 -21.6443 -21.6387 -21.6354 -21.6333 -21.6316 -21.6299 -21.6270
   -21.6261 -21.6221 -21.6197 -21.6182 -21.6179 -21.6139 -21.6103 -21.6097
   -21.5948 -21.5891 -21.5870 -21.5828 -21.5756 -21.5712 -21.5686 -21.5625
   -21.5308 -21.5288 -21.5172 -21.5156 -21.4262 -21.4181 -21.4164 -21.4116
   -21.4069 -21.3973 -21.3972 -21.3920 -21.3798 -21.3792 -21.3736 -21.3731
   -21.3710 -21.3630 -21.3604 -21.3563 -21.3183 -21.3178 -21.3153 -21.3125
    -8.5940  -8.5628  -7.9453  -7.9399  -7.0538  -7.0386  -5.6108  -5.5723
    -4.9290  -4.9191  -3.5055  -3.4837  -2.2240  -2.2117  -1.1021  -1.0721
    -0.5725  -0.5600   0.3780   0.4140   0.8217   0.8438   1.4304   1.4563
     1.6199   1.6401   2.0639   2.0709   2.2005   2.2352   2.6894   2.7276
     4.1344   4.1558   4.4624   4.4891   4.6226   4.6534   4.7930   4.8112
     4.9354   4.9413   6.0736   6.0834   6.3915   6.4266   6.6935   6.7324
     6.9970   7.0154   7.4341   7.4723   7.5449   7.5802

          k =-0.5000 0.5000 0.0000 ( 35426 PWs)   bands (ev):

   -21.8757 -21.8696 -21.8634 -21.8582 -21.8456 -21.8380 -21.8254 -21.8220
   -21.8001 -21.7938 -21.7930 -21.7879 -21.7788 -21.7750 -21.7680 -21.7664
   -21.7581 -21.7560 -21.7360 -21.7356 -21.7324 -21.7303 -21.7097 -21.7045
   -21.6979 -21.6966 -21.6948 -21.6921 -21.6837 -21.6807 -21.6767 -21.6719
   -21.6709 -21.6674 -21.6466 -21.6433 -21.6393 -21.6363 -21.6319 -21.6310
   -21.6293 -21.6272 -21.6204 -21.6179 -21.6120 -21.6097 -21.6063 -21.6023
   -21.5919 -21.5869 -21.5842 -21.5815 -21.5769 -21.5718 -21.5603 -21.5540
   -21.5286 -21.5272 -21.5156 -21.5140 -21.4335 -21.4252 -21.4234 -21.4188
   -21.4045 -21.3967 -21.3953 -21.3908 -21.3739 -21.3723 -21.3703 -21.3679
   -21.3667 -21.3626 -21.3600 -21.3563 -21.3162 -21.3154 -21.3128 -21.3098
    -8.1284  -8.0959  -7.5197  -7.5129  -6.6986  -6.6860  -5.7536  -5.7142
    -4.7272  -4.7094  -3.6664  -3.6447  -2.6405  -2.6336  -1.9244  -1.8863
    -0.6122  -0.5958  -0.5557  -0.5513   0.1890   0.1957   0.3914   0.4006
     1.0930   1.1052   1.4272   1.4394   2.3628   2.4021   2.4429   2.4718
     3.1498   3.1619   3.4925   3.5024   5.1933   5.2249   5.5665   5.5922
     6.1163   6.1405   6.4169   6.4412   6.8109   6.8243   7.0332   7.0563
     7.6284   7.6417   7.6581   7.6672   7.9598   7.9790

          k =-0.5000-1.0000 0.0000 ( 35380 PWs)   bands (ev):

   -21.8746 -21.8690 -21.8683 -21.8631 -21.8358 -21.8317 -21.8266 -21.8243
   -21.7917 -21.7859 -21.7852 -21.7805 -21.7626 -21.7609 -21.7592 -21.7578
   -21.7576 -21.7545 -21.7522 -21.7500 -21.7219 -21.7209 -21.7190 -21.7182
   -21.6928 -21.6922 -21.6913 -21.6905 -21.6860 -21.6858 -21.6746 -21.6743
   -21.6616 -21.6608 -21.6590 -21.6580 -21.6466 -21.6432 -21.6331 -21.6311
   -21.6303 -21.6280 -21.6134 -21.6131 -21.6089 -21.6073 -21.6033 -21.6020
   -21.5944 -21.5890 -21.5854 -21.5829 -21.5680 -21.5640 -21.5610 -21.5594
   -21.5282 -21.5271 -21.5152 -21.5145 -21.4233 -21.4178 -21.4147 -21.4145
   -21.4096 -21.4087 -21.4085 -21.4039 -21.3739 -21.3675 -21.3659 -21.3655
   -21.3630 -21.3622 -21.3608 -21.3590 -21.3129 -21.3114 -21.3085 -21.3057
    -6.9782  -6.9365  -6.9332  -6.8858  -6.5102  -6.4979  -6.4898  -6.4609
    -4.2255  -4.1911  -4.1844  -4.1363  -3.3279  -3.3157  -3.3121  -3.2852
    -0.3131  -0.3060  -0.2840  -0.2754  -0.0329  -0.0173  -0.0136   0.0007
     0.7830   0.8050   0.8121   0.8256   2.2884   2.3087   2.3247   2.3353
     2.4712   2.4860   2.4951   2.4998   5.0412   5.0614   5.0735   5.0921
     5.8858   5.8943   5.9059   5.9308   6.9948   7.0170   7.0249   7.0597
     7.4324   7.4470   7.4550   7.4756   8.3920   8.4334

     the Fermi energy is     2.6186 ev

!    total energy              =   -2857.28953083 Ry
     estimated scf accuracy    <       0.00000021 Ry
     smearing contrib. (-TS)   =      -0.00602833 Ry
     internal energy E=F+TS    =   -2857.28350250 Ry

     The total energy is F=E-TS. E is the sum of the following terms:
     one-electron contribution =   -7672.99168893 Ry
     hartree contribution      =    3936.73865907 Ry
     xc contribution           =    -697.02625792 Ry
     ewald contribution        =    1575.99578529 Ry

     convergence has been achieved in   7 iterations

     Forces acting on atoms (cartesian axes, Ry/au):

     atom    1 type  1   force =     0.00066409    0.00003550   -0.00359770
     atom    2 type  1   force =    -0.00325994   -0.00030205    0.00293775
     atom    3 type  1   force =    -0.00080032   -0.00064127   -0.00200517
     atom    4 type  1   force =    -0.00638210    0.00259310    0.00497820
     atom    5 type  1   force =     0.00475901   -0.00184351   -0.00511925
     atom    6 type  1   force =    -0.00500806    0.00093656    0.00090398
     atom    7 type  1   force =    -0.00095166   -0.00074628   -0.00802628
     atom    8 type  1   force =     0.00049463   -0.00004220    0.00726670
     atom    9 type  1   force =     0.00248473   -0.00023683   -0.00559031
     atom   10 type  1   force =     0.00010878   -0.00287213    0.00156328
     atom   11 type  1   force =     0.00173752    0.00300595    0.00644483
     atom   12 type  1   force =     0.00467361    0.00590393    0.00381713
     atom   13 type  1   force =     0.00652600   -0.00582158   -0.00290477
     atom   14 type  1   force =    -0.00570477   -0.00474271   -0.00431862
     atom   15 type  1   force =    -0.00197896    0.00450941   -0.00312345
     atom   16 type  1   force =     0.00263743    0.00026409    0.00677368

     Total force =     0.026955     Total SCF correction =     0.002194
     Energy error            =      1.2E-03 Ry
     Gradient error          =      8.0E-03 Ry/Bohr

     number of scf cycles    =   2
     number of bfgs steps    =   1

     energy             old  =   -2857.2883531524 Ry
     energy             new  =   -2857.2895308291 Ry

     CASE: energy            _new < energy            _old

     new trust radius        =       0.0150801395 bohr
     new conv_thr            =       0.0000000803 Ry


ATOMIC_POSITIONS (angstrom)
Ge            0.0016717671        0.0114323389        4.9958415440
Ge            2.0497786300        0.0173951913        6.4662775705
Ge            2.0465942629        2.0570848540        7.8941646139
Ge            0.0067030282        2.0252887555        9.3281149235
Ge           -0.0026363984       -0.0120989609       10.7606079379
Ge            2.0429088427       -0.0051914922       12.2106562486
Ge            2.0519251375        2.0358727094       13.6473484034
Ge            0.0025028198        2.0350225737       15.0932287773
Ge            4.0661779956       -0.0079845574        4.9736028145
Ge            6.1058351426       -0.0052576378        6.4483350566
Ge            6.1139206012        2.0304219093        7.8774874223
Ge            4.0759119158        2.0361898646        9.3410713560
Ge            4.0774335984        0.0030372904       10.7674807804
Ge            6.1302845146        0.0093682916       12.2144211499
Ge            6.1180758516        2.0424018963       13.6422465758
Ge            4.0820711553        2.0480767409       15.1192304057



     Writing output data file ./out/ge.save/
     NEW-OLD atomic charge density approx. for the potential

     total cpu time spent up to now is       50.8 secs

     Self-consistent Calculation

     iteration #  1     ecut=    60.00 Ry     beta= 0.40
     Davidson diagonalization with overlap
     ethr =  1.00E-06,  avg # of iterations =  4.0

     Threshold (ethr) on eigenvalues was too large:
     Diagonalizing with lowered threshold

     Davidson diagonalization with overlap
     ethr =  2.31E-08,  avg # of iterations =  4.0

     total cpu time spent up to now is       57.0 secs

     total energy              =   -2857.29046195 Ry
     estimated scf accuracy    <       0.00005728 Ry

     iteration #  2     ecut=    60.00 Ry     beta= 0.40
     Davidson diagonalization with overlap
     ethr =  2.56E-08,  avg # of iterations =  2.0

     total cpu time spent up to now is       59.0 secs

     total energy              =   -2857.29042924 Ry
     estimated scf accuracy    <       0.00066264 Ry

     iteration #  3     ecut=    60.00 Ry     beta= 0.40
     Davidson diagonalization with overlap
     ethr =  2.56E-08,  avg # of iterations =  2.0

     total cpu time spent up to now is       60.9 secs

     total energy              =   -2857.29046071 Ry
     estimated scf accuracy    <       0.00027847 Ry

     iteration #  4     ecut=    60.00 Ry     beta= 0.40
     Davidson diagonalization with overlap
     ethr =  2.56E-08,  avg # of iterations =  2.0

     total cpu time spent up to now is       62.8 secs

     total energy              =   -2857.29047012 Ry
     estimated scf accuracy    <       0.00004009 Ry

     iteration #  5     ecut=    60.00 Ry     beta= 0.40
     Davidson diagonalization with overlap
     ethr =  1.79E-08,  avg # of iterations =  1.8

     total cpu time spent up to now is       64.6 secs

     total energy              =   -2857.29047394 Ry
     estimated scf accuracy    <       0.00002136 Ry

     iteration #  6     ecut=    60.00 Ry     beta= 0.40
     Davidson diagonalization with overlap
     ethr =  9.54E-09,  avg # of iterations =  1.3

     total cpu time spent up to now is       66.4 secs

     total energy              =   -2857.29047581 Ry
     estimated scf accuracy    <       0.00000146 Ry

     iteration #  7     ecut=    60.00 Ry     beta= 0.40
     Davidson diagonalization with overlap
     ethr =  6.51E-10,  avg # of iterations =  2.5

     total cpu time spent up to now is       68.4 secs

     total energy              =   -2857.29047607 Ry
     estimated scf accuracy    <       0.00000026 Ry

     iteration #  8     ecut=    60.00 Ry     beta= 0.40
     Davidson diagonalization with overlap
     ethr =  1.15E-10,  avg # of iterations =  2.5

     total cpu time spent up to now is       70.3 secs

     total energy              =   -2857.29047609 Ry
     estimated scf accuracy    <       0.00000008 Ry

     iteration #  9     ecut=    60.00 Ry     beta= 0.40
     Davidson diagonalization with overlap
     ethr =  3.63E-11,  avg # of iterations =  2.0

     total cpu time spent up to now is       72.2 secs

     End of self-consistent calculation

          k = 0.0000 0.0000 0.0000 ( 35449 PWs)   bands (ev):

   -21.8673 -21.8624 -21.8574 -21.8461 -21.8404 -21.8352 -21.8228 -21.8170
   -21.8162 -21.8158 -21.8086 -21.7965 -21.7893 -21.7851 -21.7833 -21.7805
   -21.7692 -21.7557 -21.7501 -21.7461 -21.7354 -21.7251 -21.7087 -21.7084
   -21.7041 -21.6998 -21.6977 -21.6968 -21.6827 -21.6810 -21.6720 -21.6679
   -21.6443 -21.6440 -21.6412 -21.6393 -21.6331 -21.6305 -21.6277 -21.6275
   -21.6255 -21.6249 -21.6248 -21.6242 -21.6225 -21.6110 -21.6103 -21.6095
   -21.6027 -21.5951 -21.5865 -21.5773 -21.5694 -21.5641 -21.5638 -21.5623
   -21.5366 -21.5346 -21.5171 -21.5163 -21.4266 -21.4212 -21.4108 -21.4084
   -21.3988 -21.3929 -21.3919 -21.3885 -21.3631 -21.3616 -21.3615 -21.3608
   -21.3567 -21.3551 -21.3549 -21.3533 -21.3243 -21.3234 -21.3143 -21.3113
    -9.0447  -8.3534  -7.4515  -7.3718  -7.3561  -7.2674  -6.0724  -5.1416
    -5.0787  -4.5346  -3.9020  -3.7474  -3.4137  -2.7163  -0.7871  -0.0070
     0.1040   0.4372   0.4384   1.1183   1.1483   1.1584   1.2491   1.4017
     1.6694   1.7610   1.8099   1.9992   2.1588   2.3435   2.7966   3.2464
     3.7069   3.9551   4.0053   4.3093   4.3396   4.5120   4.6629   4.6722
     4.9399   4.9759   4.9918   5.0168   5.2125   5.4005   6.2522   6.7378
     6.7695   6.9453   7.1687   7.1814   7.2988   7.3588

          k = 0.0000 0.5000 0.0000 ( 35445 PWs)   bands (ev):

   -21.8698 -21.8657 -21.8598 -21.8570 -21.8482 -21.8421 -21.8288 -21.8231
   -21.8022 -21.8015 -21.8012 -21.7928 -21.7893 -21.7845 -21.7821 -21.7636
   -21.7630 -21.7464 -21.7416 -21.7381 -21.7362 -21.7336 -21.7043 -21.7030
   -21.6976 -21.6959 -21.6930 -21.6886 -21.6841 -21.6801 -21.6773 -21.6742
   -21.6655 -21.6647 -21.6485 -21.6470 -21.6435 -21.6425 -21.6359 -21.6311
   -21.6283 -21.6252 -21.6239 -21.6212 -21.6112 -21.6106 -21.6081 -21.6015
   -21.6002 -21.5959 -21.5892 -21.5680 -21.5672 -21.5632 -21.5612 -21.5548
   -21.5367 -21.5361 -21.5183 -21.5174 -21.4333 -21.4275 -21.4181 -21.4149
   -21.3945 -21.3890 -21.3884 -21.3853 -21.3650 -21.3624 -21.3613 -21.3586
   -21.3578 -21.3558 -21.3553 -21.3508 -21.3241 -21.3215 -21.3087 -21.3062
    -8.5840  -7.9436  -7.0713  -6.9566  -6.8707  -6.7770  -6.2428  -4.9398
    -4.8879  -4.3188  -4.1235  -4.0988  -3.8950  -3.1834  -2.0921  -1.1596
    -0.3528  -0.3355  -0.2008   0.1726   0.2115   0.5068   0.8229   0.8559
     0.9333   1.4174   1.9315   1.9643   2.1082   2.1243   2.6093   2.6240
     2.8974   3.2814   3.4740   3.7452   4.5037   4.6720   4.8158   4.9696
     5.0894   5.2072   5.6358   5.7879   5.9966   6.5675   6.7313   6.8719
     6.9022   7.4720   7.5275   7.5718   7.6459   8.0676

          k = 0.0000-1.0000 0.0000 ( 35284 PWs)   bands (ev):

   -21.8696 -21.8672 -21.8590 -21.8562 -21.8390 -21.8369 -21.8337 -21.8315
   -21.7888 -21.7882 -21.7872 -21.7865 -21.7760 -21.7754 -21.7708 -21.7689
   -21.7453 -21.7452 -21.7443 -21.7420 -21.7405 -21.7394 -21.7093 -21.7081
   -21.6844 -21.6839 -21.6839 -21.6829 -21.6806 -21.6802 -21.6705 -21.6697
   -21.6675 -21.6664 -21.6619 -21.6612 -21.6464 -21.6440 -21.6341 -21.6330
   -21.6277 -21.6254 -21.6217 -21.6209 -21.6104 -21.6095 -21.5963 -21.5950
   -21.5930 -21.5914 -21.5834 -21.5822 -21.5604 -21.5593 -21.5550 -21.5537
   -21.5360 -21.5358 -21.5184 -21.5177 -21.4234 -21.4179 -21.4100 -21.4046
   -21.4018 -21.3980 -21.3963 -21.3932 -21.3670 -21.3624 -21.3590 -21.3580
   -21.3572 -21.3549 -21.3470 -21.3426 -21.3223 -21.3210 -21.2991 -21.2976
    -7.4334  -7.4219  -6.9816  -6.9601  -5.6117  -5.5876  -5.5726  -5.5537
    -5.3478  -5.3361  -4.6882  -4.6713  -3.9389  -3.9234  -2.8252  -2.8071
    -0.2763  -0.2718  -0.2500  -0.2444   0.0451   0.0531   0.1902   0.1936
     1.7027   1.7103   1.8066   1.8161   1.8904   1.8970   2.0843   2.1173
     2.3702   2.3773   2.8352   2.8398   4.5643   4.5761   4.6207   4.6400
     5.0961   5.1122   5.2742   5.2782   6.1971   6.2121   7.1133   7.1245
     7.2347   7.2417   7.5876   7.6039   7.9862   8.0104

          k =-0.5000 0.0000 0.0000 ( 35510 PWs)   bands (ev):

   -21.8768 -21.8728 -21.8577 -21.8545 -21.8464 -21.8383 -21.8233 -21.8196
   -21.8049 -21.8030 -21.8025 -21.7984 -21.7936 -21.7926 -21.7709 -21.7705
   -21.7641 -21.7636 -21.7463 -21.7432 -21.7329 -21.7322 -21.7296 -21.7263
   -21.6985 -21.6979 -21.6972 -21.6941 -21.6858 -21.6850 -21.6842 -21.6812
   -21.6475 -21.6434 -21.6413 -21.6375 -21.6367 -21.6321 -21.6280 -21.6277
   -21.6258 -21.6255 -21.6220 -21.6212 -21.6210 -21.6179 -21.6112 -21.6104
   -21.5912 -21.5867 -21.5852 -21.5800 -21.5767 -21.5740 -21.5724 -21.5669
   -21.5282 -21.5261 -21.5162 -21.5150 -21.4185 -21.4134 -21.4122 -21.4098
   -21.3987 -21.3937 -21.3913 -21.3900 -21.3739 -21.3734 -21.3696 -21.3692
   -21.3626 -21.3573 -21.3566 -21.3547 -21.3155 -21.3151 -21.3130 -21.3112
    -8.5939  -8.5717  -7.9373  -7.9306  -7.0479  -7.0385  -5.5916  -5.5691
    -4.9266  -4.9203  -3.4941  -3.4829  -2.2195  -2.2130  -1.0905  -1.0721
    -0.5639  -0.5567   0.3954   0.4196   0.8130   0.8315   1.4431   1.4494
     1.6250   1.6450   2.0640   2.0669   2.1982   2.2155   2.6886   2.7255
     4.1283   4.1507   4.4594   4.4756   4.6215   4.6441   4.8015   4.8124
     4.9373   4.9427   6.0675   6.0790   6.3861   6.4077   6.6875   6.7196
     7.0098   7.0228   7.4391   7.4754   7.5475   7.5678

          k =-0.5000 0.5000 0.0000 ( 35426 PWs)   bands (ev):

   -21.8758 -21.8717 -21.8644 -21.8611 -21.8489 -21.8438 -21.8283 -21.8251
   -21.7974 -21.7953 -21.7907 -21.7898 -21.7793 -21.7764 -21.7688 -21.7680
   -21.7578 -21.7573 -21.7367 -21.7358 -21.7336 -21.7319 -21.7118 -21.7080
   -21.6985 -21.6956 -21.6952 -21.6927 -21.6845 -21.6811 -21.6785 -21.6751
   -21.6738 -21.6725 -21.6453 -21.6429 -21.6425 -21.6390 -21.6328 -21.6307
   -21.6284 -21.6264 -21.6222 -21.6203 -21.6133 -21.6105 -21.6085 -21.6038
   -21.5883 -21.5847 -21.5811 -21.5793 -21.5786 -21.5758 -21.5630 -21.5577
   -21.5261 -21.5246 -21.5146 -21.5135 -21.4253 -21.4200 -21.4190 -21.4170
   -21.3963 -21.3920 -21.3897 -21.3886 -21.3680 -21.3671 -21.3642 -21.3633
   -21.3619 -21.3567 -21.3564 -21.3548 -21.3130 -21.3125 -21.3105 -21.3084
    -8.1269  -8.1043  -7.5113  -7.5029  -6.6898  -6.6815  -5.7344  -5.7117
    -4.7239  -4.7156  -3.6612  -3.6517  -2.6396  -2.6337  -1.9151  -1.8952
    -0.6135  -0.5998  -0.5573  -0.5541   0.2008   0.2081   0.3969   0.4049
     1.0986   1.1076   1.4347   1.4422   2.3567   2.3972   2.4365   2.4661
     3.1542   3.1625   3.4945   3.5028   5.1962   5.2227   5.5769   5.5951
     6.1113   6.1295   6.4056   6.4279   6.8039   6.8137   7.0280   7.0489
     7.6224   7.6312   7.6594   7.6664   7.9631   7.9829

          k =-0.5000-1.0000 0.0000 ( 35380 PWs)   bands (ev):

   -21.8744 -21.8705 -21.8697 -21.8664 -21.8376 -21.8357 -21.8315 -21.8299
   -21.7887 -21.7867 -21.7833 -21.7826 -21.7618 -21.7614 -21.7591 -21.7587
   -21.7580 -21.7565 -21.7533 -21.7528 -21.7232 -21.7230 -21.7213 -21.7207
   -21.6947 -21.6943 -21.6932 -21.6923 -21.6859 -21.6854 -21.6753 -21.6746
   -21.6647 -21.6643 -21.6622 -21.6616 -21.6451 -21.6423 -21.6330 -21.6316
   -21.6292 -21.6271 -21.6149 -21.6143 -21.6109 -21.6102 -21.6059 -21.6049
   -21.5893 -21.5860 -21.5815 -21.5803 -21.5691 -21.5674 -21.5641 -21.5634
   -21.5259 -21.5247 -21.5142 -21.5141 -21.4148 -21.4101 -21.4099 -21.4084
   -21.4069 -21.4049 -21.4032 -21.4020 -21.3654 -21.3619 -21.3607 -21.3597
   -21.3595 -21.3585 -21.3579 -21.3570 -21.3092 -21.3085 -21.3061 -21.3043
    -6.9626  -6.9369  -6.9348  -6.9069  -6.4869  -6.4779  -6.4734  -6.4513
    -4.2120  -4.1991  -4.1936  -4.1696  -3.3227  -3.3209  -3.3087  -3.2973
    -0.3012  -0.2969  -0.2801  -0.2768  -0.0213  -0.0126  -0.0076   0.0012
     0.7983   0.8132   0.8171   0.8265   2.2848   2.3016   2.3207   2.3302
     2.4712   2.4840   2.4931   2.4971   5.0535   5.0679   5.0793   5.0942
     5.8816   5.8869   5.8977   5.9146   6.9967   7.0105   7.0153   7.0379
     7.4245   7.4420   7.4455   7.4657   8.3959   8.4316

     the Fermi energy is     2.6215 ev

!    total energy              =   -2857.29047608 Ry
     estimated scf accuracy    <       0.00000003 Ry
     smearing contrib. (-TS)   =      -0.00589220 Ry
     internal energy E=F+TS    =   -2857.28458389 Ry

     The total energy is F=E-TS. E is the sum of the following terms:
     one-electron contribution =   -7670.86897519 Ry
     hartree contribution      =    3935.67493562 Ry
     xc contribution           =    -697.01911375 Ry
     ewald contribution        =    1574.92856943 Ry

     convergence has been achieved in   9 iterations

     Forces acting on atoms (cartesian axes, Ry/au):

     atom    1 type  1   force =     0.00030851    0.00008051   -0.00311268
     atom    2 type  1   force =    -0.00208059   -0.00037405    0.00139969
     atom    3 type  1   force =    -0.00092732   -0.00049069   -0.00009022
     atom    4 type  1   force =    -0.00362476    0.00135213    0.00331058
     atom    5 type  1   force =     0.00239607   -0.00058296   -0.00321104
     atom    6 type  1   force =    -0.00245027    0.00044845   -0.00062356
     atom    7 type  1   force =    -0.00042483   -0.00033900   -0.00490551
     atom    8 type  1   force =     0.00030141   -0.00010506    0.00559637
     atom    9 type  1   force =     0.00155809   -0.00016977   -0.00430443
     atom   10 type  1   force =     0.00033653   -0.00124070    0.00187010
     atom   11 type  1   force =     0.00125432    0.00143814    0.00402686
     atom   12 type  1   force =     0.00289941    0.00249004    0.00257137
     atom   13 type  1   force =     0.00300854   -0.00240379   -0.00207653
     atom   14 type  1   force =    -0.00273099   -0.00231392   -0.00307594
     atom   15 type  1   force =    -0.00104015    0.00203050   -0.00248526
     atom   16 type  1   force =     0.00121603    0.00018016    0.00511019

     Total force =     0.016421     Total SCF correction =     0.000877
     Energy error            =      9.5E-04 Ry
     Gradient error          =      5.6E-03 Ry/Bohr

     number of scf cycles    =   3
     number of bfgs steps    =   2

     energy             old  =   -2857.2895308291 Ry
     energy             new  =   -2857.2904760840 Ry

     CASE: energy            _new < energy            _old

     new trust radius        =       0.0212171304 bohr
     new conv_thr            =       0.0000000560 Ry


ATOMIC_POSITIONS (angstrom)
Ge            0.0024373503        0.0115517757        4.9898962981
Ge            2.0452975102        0.0167566993        6.4697288408
Ge            2.0449854133        2.0561059025        7.8928802852
Ge           -0.0014840886        2.0284721182        9.3351075491
Ge            0.0031130900       -0.0138951318       10.7536496838
Ge            2.0369528982       -0.0040935459       12.2104150883
Ge            2.0508466217        2.0350208614       13.6366214087
Ge            0.0031656577        2.0348681223       15.1043686017
Ge            4.0695554701       -0.0083320119        4.9650330001
Ge            6.1063218400       -0.0084728927        6.4515423704
Ge            6.1164826923        2.0339587660        7.8862168372
Ge            4.0822021680        2.0427174455        9.3464657766
Ge            4.0849561914       -0.0033343897       10.7632220578
Ge            6.1235792821        0.0037407851       12.2081115682
Ge            6.1156312495        2.0475430670       13.6373770164
Ge            4.0851155187        2.0484521966       15.1294791980



     Writing output data file ./out/ge.save/
     NEW-OLD atomic charge density approx. for the potential

     total cpu time spent up to now is       72.8 secs

     Self-consistent Calculation

     iteration #  1     ecut=    60.00 Ry     beta= 0.40
     Davidson diagonalization with overlap
     ethr =  1.00E-06,  avg # of iterations =  6.0

     Threshold (ethr) on eigenvalues was too large:
     Diagonalizing with lowered threshold

     Davidson diagonalization with overlap
     ethr =  6.40E-08,  avg # of iterations =  4.0

     total cpu time spent up to now is       79.6 secs

     total energy              =   -2857.29102256 Ry
     estimated scf accuracy    <       0.00014651 Ry

     iteration #  2     ecut=    60.00 Ry     beta= 0.40
     Davidson diagonalization with overlap
     ethr =  6.54E-08,  avg # of iterations =  2.3

     total cpu time spent up to now is       81.6 secs

     total energy              =   -2857.29095604 Ry
     estimated scf accuracy    <       0.00118207 Ry

     iteration #  3     ecut=    60.00 Ry     beta= 0.40
     Davidson diagonalization with overlap
     ethr =  6.54E-08,  avg # of iterations =  2.0

     total cpu time spent up to now is       83.5 secs

     total energy              =   -2857.29100637 Ry
     estimated scf accuracy    <       0.00099686 Ry

     iteration #  4     ecut=    60.00 Ry     beta= 0.40
     Davidson diagonalization with overlap
     ethr =  6.54E-08,  avg # of iterations =  2.0

     total cpu time spent up to now is       85.4 secs

     total energy              =   -2857.29104352 Ry
     estimated scf accuracy    <       0.00015747 Ry

     iteration #  5     ecut=    60.00 Ry     beta= 0.40
     Davidson diagonalization with overlap
     ethr =  6.54E-08,  avg # of iterations =  1.7

     total cpu time spent up to now is       87.2 secs

     total energy              =   -2857.29105600 Ry
     estimated scf accuracy    <       0.00003790 Ry

     iteration #  6     ecut=    60.00 Ry     beta= 0.40
     Davidson diagonalization with overlap
     ethr =  1.69E-08,  avg # of iterations =  2.0

     total cpu time spent up to now is       89.1 secs

     total energy              =   -2857.29105986 Ry
     estimated scf accuracy    <       0.00000508 Ry

     iteration #  7     ecut=    60.00 Ry     beta= 0.40
     Davidson diagonalization with overlap
     ethr =  2.27E-09,  avg # of iterations =  2.0

     total cpu time spent up to now is       91.0 secs

     total energy              =   -2857.29106058 Ry
     estimated scf accuracy    <       0.00000065 Ry

     iteration #  8     ecut=    60.00 Ry     beta= 0.40
     Davidson diagonalization with overlap
     ethr =  2.90E-10,  avg # of iterations =  2.7

     total cpu time spent up to now is       93.0 secs

     total energy              =   -2857.29106068 Ry
     estimated scf accuracy    <       0.00000021 Ry

     iteration #  9     ecut=    60.00 Ry     beta= 0.40
     Davidson diagonalization with overlap
     ethr =  9.20E-11,  avg # of iterations =  2.0

     total cpu time spent up to now is       94.9 secs

     total energy              =   -2857.29106070 Ry
     estimated scf accuracy    <       0.00000006 Ry

     iteration # 10     ecut=    60.00 Ry     beta= 0.40
     Davidson diagonalization with overlap
     ethr =  2.61E-11,  avg # of iterations =  2.0

     total cpu time spent up to now is       96.8 secs

     End of self-consistent calculation

          k = 0.0000 0.0000 0.0000 ( 35449 PWs)   bands (ev):

   -21.8687 -21.8670 -21.8607 -21.8542 -21.8463 -21.8431 -21.8248 -21.8229
   -21.8203 -21.8171 -21.8086 -21.7954 -21.7874 -21.7857 -21.7843 -21.7829
   -21.7691 -21.7637 -21.7490 -21.7445 -21.7363 -21.7248 -21.7154 -21.7121
   -21.7046 -21.7024 -21.6960 -21.6956 -21.6827 -21.6818 -21.6757 -21.6733
   -21.6511 -21.6438 -21.6432 -21.6420 -21.6360 -21.6326 -21.6312 -21.6302
   -21.6295 -21.6292 -21.6287 -21.6254 -21.6238 -21.6168 -21.6108 -21.6106
   -21.6029 -21.5903 -21.5859 -21.5830 -21.5747 -21.5701 -21.5598 -21.5586
   -21.5336 -21.5314 -21.5147 -21.5141 -21.4161 -21.4137 -21.4044 -21.4017
   -21.3885 -21.3869 -21.3842 -21.3804 -21.3585 -21.3569 -21.3524 -21.3506
   -21.3498 -21.3495 -21.3483 -21.3445 -21.3198 -21.3184 -21.3102 -21.3072
    -9.0521  -8.3358  -7.4777  -7.3620  -7.3477  -7.2593  -6.0545  -5.1166
    -5.0566  -4.5439  -3.8875  -3.7351  -3.3917  -2.7259  -0.8029  -0.0058
     0.1045   0.4223   0.4368   1.1413   1.1469   1.1683   1.2546   1.3976
     1.6293   1.7628   1.8124   2.0312   2.1508   2.3450   2.8216   3.2396
     3.6965   3.9462   4.0070   4.3024   4.3260   4.5220   4.6648   4.6903
     4.9453   4.9889   5.0027   5.0119   5.2185   5.4016   6.2349   6.7146
     6.7538   6.9111   7.1753   7.1816   7.3201   7.3622

          k = 0.0000 0.5000 0.0000 ( 35445 PWs)   bands (ev):

   -21.8715 -21.8678 -21.8662 -21.8640 -21.8580 -21.8458 -21.8316 -21.8299
   -21.8046 -21.8039 -21.8010 -21.7930 -21.7881 -21.7851 -21.7812 -21.7678
   -21.7630 -21.7458 -21.7406 -21.7403 -21.7393 -21.7367 -21.7067 -21.7039
   -21.7033 -21.6993 -21.6918 -21.6893 -21.6885 -21.6803 -21.6785 -21.6780
   -21.6707 -21.6701 -21.6551 -21.6477 -21.6467 -21.6436 -21.6381 -21.6334
   -21.6278 -21.6262 -21.6260 -21.6243 -21.6146 -21.6115 -21.6100 -21.6068
   -21.6005 -21.5913 -21.5883 -21.5729 -21.5719 -21.5601 -21.5593 -21.5573
   -21.5336 -21.5329 -21.5158 -21.5153 -21.4229 -21.4197 -21.4106 -21.4079
   -21.3849 -21.3827 -21.3808 -21.3778 -21.3583 -21.3569 -21.3544 -21.3524
   -21.3512 -21.3473 -21.3462 -21.3439 -21.3195 -21.3168 -21.3044 -21.3018
    -8.5902  -7.9256  -7.0530  -6.9814  -6.8650  -6.7686  -6.2255  -4.9148
    -4.8656  -4.3287  -4.1077  -4.0944  -3.8773  -3.2016  -2.1047  -1.1622
    -0.3601  -0.3512  -0.2289   0.1746   0.2150   0.5120   0.8246   0.8601
     0.9403   1.4446   1.9312   1.9580   2.1015   2.1598   2.6265   2.6342
     2.8843   3.2951   3.4831   3.7418   4.5212   4.6717   4.8419   4.9743
     5.0827   5.1843   5.6366   5.7947   5.9742   6.5526   6.7489   6.8845
     6.8971   7.4457   7.5305   7.5452   7.6449   8.0740

          k = 0.0000-1.0000 0.0000 ( 35284 PWs)   bands (ev):

   -21.8709 -21.8701 -21.8652 -21.8632 -21.8440 -21.8419 -21.8404 -21.8390
   -21.7907 -21.7896 -21.7868 -21.7861 -21.7756 -21.7753 -21.7742 -21.7724
   -21.7481 -21.7471 -21.7446 -21.7437 -21.7416 -21.7382 -21.7111 -21.7095
   -21.6895 -21.6888 -21.6872 -21.6871 -21.6813 -21.6809 -21.6727 -21.6719
   -21.6704 -21.6702 -21.6666 -21.6658 -21.6458 -21.6455 -21.6359 -21.6357
   -21.6258 -21.6252 -21.6251 -21.6249 -21.6110 -21.6107 -21.5999 -21.5995
   -21.5888 -21.5876 -21.5875 -21.5863 -21.5598 -21.5585 -21.5561 -21.5554
   -21.5332 -21.5328 -21.5161 -21.5156 -21.4126 -21.4099 -21.4000 -21.3980
   -21.3937 -21.3909 -21.3888 -21.3866 -21.3576 -21.3563 -21.3541 -21.3530
   -21.3500 -21.3470 -21.3380 -21.3357 -21.3176 -21.3162 -21.2946 -21.2930
    -7.4382  -7.4260  -6.9432  -6.9345  -5.6215  -5.5983  -5.5708  -5.5678
    -5.3253  -5.3179  -4.6586  -4.6529  -3.9524  -3.9407  -2.8347  -2.8309
    -0.2767  -0.2706  -0.2540  -0.2516   0.0504   0.0535   0.2002   0.2022
     1.7024   1.7114   1.8044   1.8105   1.8893   1.8941   2.1414   2.1519
     2.3805   2.3838   2.8215   2.8236   4.5673   4.5700   4.6186   4.6218
     5.1255   5.1308   5.2802   5.2854   6.1924   6.1984   7.1034   7.1104
     7.2582   7.2655   7.5677   7.5731   7.9670   7.9739

          k =-0.5000 0.0000 0.0000 ( 35510 PWs)   bands (ev):

   -21.8785 -21.8777 -21.8592 -21.8574 -21.8538 -21.8502 -21.8272 -21.8253
   -21.8054 -21.8050 -21.8028 -21.8021 -21.7945 -21.7888 -21.7725 -21.7696
   -21.7655 -21.7627 -21.7491 -21.7476 -21.7348 -21.7331 -21.7312 -21.7307
   -21.7006 -21.6976 -21.6965 -21.6962 -21.6876 -21.6856 -21.6851 -21.6847
   -21.6473 -21.6467 -21.6446 -21.6439 -21.6389 -21.6340 -21.6319 -21.6304
   -21.6268 -21.6263 -21.6260 -21.6250 -21.6245 -21.6240 -21.6119 -21.6116
   -21.5890 -21.5862 -21.5824 -21.5781 -21.5769 -21.5752 -21.5743 -21.5740
   -21.5256 -21.5238 -21.5152 -21.5140 -21.4091 -21.4067 -21.4063 -21.4019
   -21.3887 -21.3861 -21.3855 -21.3811 -21.3654 -21.3651 -21.3629 -21.3621
   -21.3529 -21.3509 -21.3502 -21.3461 -21.3115 -21.3106 -21.3097 -21.3079
    -8.5953  -8.5873  -7.9251  -7.9127  -7.0389  -7.0353  -5.5654  -5.5607
    -4.9262  -4.9179  -3.4802  -3.4779  -2.2185  -2.2115  -1.0772  -1.0688
    -0.5552  -0.5456   0.4196   0.4350   0.7987   0.8103   1.4424   1.4640
     1.6330   1.6522   2.0600   2.0630   2.1876   2.1984   2.6859   2.7213
     4.1168   4.1418   4.4466   4.4620   4.6100   4.6382   4.8140   4.8163
     4.9404   4.9458   6.0577   6.0708   6.3697   6.3819   6.6736   6.7020
     7.0278   7.0383   7.4446   7.4795   7.5467   7.5516

          k =-0.5000 0.5000 0.0000 ( 35426 PWs)   bands (ev):

   -21.8773 -21.8764 -21.8679 -21.8668 -21.8545 -21.8533 -21.8328 -21.8307
   -21.7972 -21.7936 -21.7927 -21.7866 -21.7804 -21.7786 -21.7719 -21.7698
   -21.7593 -21.7569 -21.7374 -21.7370 -21.7360 -21.7341 -21.7156 -21.7134
   -21.7006 -21.6984 -21.6946 -21.6914 -21.6865 -21.6837 -21.6812 -21.6803
   -21.6786 -21.6765 -21.6478 -21.6476 -21.6437 -21.6417 -21.6349 -21.6325
   -21.6278 -21.6262 -21.6262 -21.6227 -21.6161 -21.6119 -21.6115 -21.6070
   -21.5851 -21.5827 -21.5815 -21.5804 -21.5756 -21.5745 -21.5666 -21.5637
   -21.5235 -21.5226 -21.5136 -21.5127 -21.4154 -21.4130 -21.4128 -21.4085
   -21.3855 -21.3838 -21.3837 -21.3801 -21.3603 -21.3596 -21.3578 -21.3565
   -21.3521 -21.3510 -21.3498 -21.3460 -21.3089 -21.3078 -21.3070 -21.3047
    -8.1266  -8.1193  -7.4969  -7.4861  -6.6753  -6.6725  -5.7078  -5.7042
    -4.7255  -4.7173  -3.6626  -3.6538  -2.6420  -2.6307  -1.9084  -1.9003
    -0.6156  -0.6079  -0.5611  -0.5572   0.2214   0.2298   0.4059   0.4124
     1.1089   1.1137   1.4454   1.4502   2.3462   2.3873   2.4258   2.4558
     3.1606   3.1645   3.4968   3.5034   5.1951   5.2211   5.5903   5.6052
     6.0988   6.1140   6.3842   6.4042   6.7840   6.8017   7.0133   7.0395
     7.6092   7.6149   7.6606   7.6647   7.9672   7.9891

          k =-0.5000-1.0000 0.0000 ( 35380 PWs)   bands (ev):

   -21.8750 -21.8746 -21.8738 -21.8721 -21.8430 -21.8412 -21.8401 -21.8389
   -21.7876 -21.7864 -21.7847 -21.7802 -21.7622 -21.7621 -21.7613 -21.7595
   -21.7588 -21.7581 -21.7567 -21.7548 -21.7266 -21.7253 -21.7251 -21.7238
   -21.6983 -21.6976 -21.6969 -21.6958 -21.6854 -21.6850 -21.6767 -21.6765
   -21.6694 -21.6690 -21.6663 -21.6661 -21.6440 -21.6435 -21.6342 -21.6340
   -21.6273 -21.6271 -21.6176 -21.6175 -21.6145 -21.6138 -21.6090 -21.6088
   -21.5832 -21.5819 -21.5767 -21.5760 -21.5724 -21.5710 -21.5693 -21.5687
   -21.5232 -21.5231 -21.5135 -21.5133 -21.4037 -21.4023 -21.4018 -21.3992
   -21.3984 -21.3978 -21.3971 -21.3938 -21.3554 -21.3549 -21.3538 -21.3536
   -21.3528 -21.3523 -21.3509 -21.3487 -21.3045 -21.3037 -21.3023 -21.3002
    -6.9526  -6.9437  -6.9336  -6.9326  -6.4492  -6.4452  -6.4439  -6.4311
    -4.2197  -4.2125  -4.2049  -4.1929  -3.3287  -3.3237  -3.3090  -3.3014
    -0.2866  -0.2850  -0.2777  -0.2753  -0.0069  -0.0035   0.0040   0.0080
     0.8220   0.8252   0.8281   0.8350   2.2783   2.2898   2.3121   2.3215
     2.4707   2.4806   2.4852   2.4962   5.0664   5.0775   5.0895   5.1034
     5.8648   5.8720   5.8875   5.8954   6.9839   6.9971   7.0029   7.0141
     7.4086   7.4224   7.4356   7.4498   8.4017   8.4285

     the Fermi energy is     2.6260 ev

!    total energy              =   -2857.29106071 Ry
     estimated scf accuracy    <          5.2E-09 Ry
     smearing contrib. (-TS)   =      -0.00569316 Ry
     internal energy E=F+TS    =   -2857.28536755 Ry

     The total energy is F=E-TS. E is the sum of the following terms:
     one-electron contribution =   -7666.74697451 Ry
     hartree contribution      =    3933.61593388 Ry
     xc contribution           =    -697.00714593 Ry
     ewald contribution        =    1572.85281901 Ry

     convergence has been achieved in  10 iterations

     Forces acting on atoms (cartesian axes, Ry/au):

     atom    1 type  1   force =    -0.00027992    0.00012871   -0.00203257
     atom    2 type  1   force =    -0.00017979   -0.00045658   -0.00076818
     atom    3 type  1   force =    -0.00073848   -0.00029265    0.00203075
     atom    4 type  1   force =     0.00022090   -0.00036137    0.00072320
     atom    5 type  1   force =    -0.00086065    0.00111999   -0.00033233
     atom    6 type  1   force =     0.00098255   -0.00024985   -0.00213931
     atom    7 type  1   force =     0.00019461    0.00024768   -0.00021382
     atom    8 type  1   force =     0.00002169   -0.00016599    0.00274986
     atom    9 type  1   force =     0.00033801   -0.00008664   -0.00200016
     atom   10 type  1   force =     0.00038786    0.00089846    0.00181654
     atom   11 type  1   force =     0.00036794   -0.00060957    0.00030422
     atom   12 type  1   force =     0.00025470   -0.00201157    0.00027943
     atom   13 type  1   force =    -0.00159743    0.00208926   -0.00074626
     atom   14 type  1   force =     0.00126641    0.00095252   -0.00092204
     atom   15 type  1   force =     0.00022794   -0.00127916   -0.00110933
     atom   16 type  1   force =    -0.00060633    0.00007676    0.00236000

     Total force =     0.007670     Total SCF correction =     0.000327
     Energy error            =      5.8E-04 Ry
     Gradient error          =      2.7E-03 Ry/Bohr

     number of scf cycles    =   4
     number of bfgs steps    =   3

     energy             old  =   -2857.2904760840 Ry
     energy             new  =   -2857.2910607057 Ry

     CASE: energy            _new < energy            _old

     new trust radius        =       0.0047382095 bohr
     new conv_thr            =       0.0000000275 Ry


ATOMIC_POSITIONS (angstrom)
Ge            0.0023576829        0.0116307047        4.9882606686
Ge            2.0447769719        0.0164536678        6.4696551182
Ge            2.0444533394        2.0558569064        7.8938147518
Ge           -0.0021455407        2.0285862772        9.3361523964
Ge            0.0032149925       -0.0134750677       10.7528111885
Ge            2.0368952851       -0.0041225780       12.2092783332
Ge            2.0508432276        2.0350723203       13.6354979339
Ge            0.0032412598        2.0347661083       15.1068727371
Ge            4.0700626469       -0.0084114743        4.9631711878
Ge            6.1065687096       -0.0083122115        6.4527907861
Ge            6.1169159167        2.0339821712        7.8872011424
Ge            4.0829264654        2.0422879446        9.3471083278
Ge            4.0848394158       -0.0028485867       10.7624240955
Ge            6.1236017436        0.0037015659       12.2070359620
Ge            6.1155140363        2.0473631505       13.6363483057
Ge            4.0850927118        2.0485288688       15.1316926452



     Writing output data file ./out/ge.save/
     NEW-OLD atomic charge density approx. for the potential

     total cpu time spent up to now is       97.4 secs

     Self-consistent Calculation

     iteration #  1     ecut=    60.00 Ry     beta= 0.40
     Davidson diagonalization with overlap
     ethr =  1.00E-06,  avg # of iterations =  3.0

     Threshold (ethr) on eigenvalues was too large:
     Diagonalizing with lowered threshold

     Davidson diagonalization with overlap
     ethr =  3.11E-09,  avg # of iterations =  4.5

     total cpu time spent up to now is      103.0 secs

     total energy              =   -2857.29111611 Ry
     estimated scf accuracy    <       0.00000427 Ry

     iteration #  2     ecut=    60.00 Ry     beta= 0.40
     Davidson diagonalization with overlap
     ethr =  1.91E-09,  avg # of iterations =  2.7

     total cpu time spent up to now is      105.1 secs

     total energy              =   -2857.29111441 Ry
     estimated scf accuracy    <       0.00003260 Ry

     iteration #  3     ecut=    60.00 Ry     beta= 0.40
     Davidson diagonalization with overlap
     ethr =  1.91E-09,  avg # of iterations =  2.3

     total cpu time spent up to now is      107.0 secs

     total energy              =   -2857.29111583 Ry
     estimated scf accuracy    <       0.00002448 Ry

     iteration #  4     ecut=    60.00 Ry     beta= 0.40
     Davidson diagonalization with overlap
     ethr =  1.91E-09,  avg # of iterations =  2.0

     total cpu time spent up to now is      108.9 secs

     total energy              =   -2857.29111691 Ry
     estimated scf accuracy    <       0.00000686 Ry

     iteration #  5     ecut=    60.00 Ry     beta= 0.40
     Davidson diagonalization with overlap
     ethr =  1.91E-09,  avg # of iterations =  1.5

     total cpu time spent up to now is      110.7 secs

     total energy              =   -2857.29111727 Ry
     estimated scf accuracy    <       0.00000040 Ry

     iteration #  6     ecut=    60.00 Ry     beta= 0.40
     Davidson diagonalization with overlap
     ethr =  1.80E-10,  avg # of iterations =  2.0

     total cpu time spent up to now is      112.6 secs

     total energy              =   -2857.29111731 Ry
     estimated scf accuracy    <       0.00000015 Ry

     iteration #  7     ecut=    60.00 Ry     beta= 0.40
     Davidson diagonalization with overlap
     ethr =  6.69E-11,  avg # of iterations =  2.0

     total cpu time spent up to now is      114.5 secs

     End of self-consistent calculation

          k = 0.0000 0.0000 0.0000 ( 35449 PWs)   bands (ev):

   -21.8692 -21.8678 -21.8611 -21.8556 -21.8480 -21.8437 -21.8252 -21.8239
   -21.8209 -21.8172 -21.8083 -21.7946 -21.7868 -21.7863 -21.7841 -21.7824
   -21.7688 -21.7651 -21.7484 -21.7439 -21.7361 -21.7246 -21.7163 -21.7125
   -21.7043 -21.7025 -21.6962 -21.6955 -21.6830 -21.6821 -21.6761 -21.6739
   -21.6523 -21.6442 -21.6435 -21.6424 -21.6367 -21.6331 -21.6316 -21.6308
   -21.6303 -21.6302 -21.6293 -21.6256 -21.6239 -21.6177 -21.6112 -21.6109
   -21.6031 -21.5895 -21.5855 -21.5840 -21.5754 -21.5712 -21.5591 -21.5580
   -21.5333 -21.5311 -21.5143 -21.5139 -21.4139 -21.4118 -21.4027 -21.4005
   -21.3865 -21.3850 -21.3823 -21.3791 -21.3574 -21.3558 -21.3504 -21.3488
   -21.3481 -21.3476 -21.3463 -21.3433 -21.3188 -21.3174 -21.3091 -21.3063
    -9.0533  -8.3317  -7.4821  -7.3597  -7.3443  -7.2565  -6.0520  -5.1118
    -5.0521  -4.5448  -3.8857  -3.7344  -3.3884  -2.7280  -0.8064  -0.0054
     0.1048   0.4202   0.4362   1.1403   1.1521   1.1718   1.2548   1.3970
     1.6232   1.7650   1.8149   2.0376   2.1513   2.3447   2.8251   3.2381
     3.6949   3.9456   4.0067   4.3011   4.3244   4.5232   4.6662   4.6945
     4.9458   4.9913   5.0048   5.0113   5.2198   5.4027   6.2331   6.7117
     6.7525   6.9045   7.1754   7.1813   7.3225   7.3621

          k = 0.0000 0.5000 0.0000 ( 35445 PWs)   bands (ev):

   -21.8720 -21.8681 -21.8672 -21.8652 -21.8597 -21.8463 -21.8321 -21.8309
   -21.8050 -21.8041 -21.8005 -21.7922 -21.7878 -21.7846 -21.7809 -21.7684
   -21.7627 -21.7453 -21.7414 -21.7399 -21.7393 -21.7369 -21.7067 -21.7045
   -21.7034 -21.6998 -21.6920 -21.6898 -21.6886 -21.6806 -21.6788 -21.6783
   -21.6716 -21.6707 -21.6561 -21.6482 -21.6471 -21.6441 -21.6386 -21.6340
   -21.6283 -21.6266 -21.6263 -21.6244 -21.6153 -21.6118 -21.6104 -21.6075
   -21.6009 -21.5905 -21.5877 -21.5736 -21.5728 -21.5610 -21.5587 -21.5568
   -21.5334 -21.5325 -21.5154 -21.5150 -21.4207 -21.4178 -21.4088 -21.4065
   -21.3830 -21.3809 -21.3789 -21.3765 -21.3571 -21.3557 -21.3526 -21.3504
   -21.3493 -21.3460 -21.3442 -21.3422 -21.3185 -21.3158 -21.3034 -21.3008
    -8.5913  -7.9216  -7.0489  -6.9857  -6.8629  -6.7658  -6.2229  -4.9101
    -4.8611  -4.3293  -4.1071  -4.0930  -3.8741  -3.2046  -2.1066  -1.1612
    -0.3612  -0.3525  -0.2330   0.1751   0.2168   0.5132   0.8240   0.8618
     0.9415   1.4497   1.9310   1.9570   2.0996   2.1668   2.6268   2.6380
     2.8821   3.2980   3.4848   3.7413   4.5235   4.6710   4.8471   4.9758
     5.0807   5.1791   5.6360   5.7962   5.9688   6.5514   6.7516   6.8854
     6.8965   7.4413   7.5281   7.5434   7.6445   8.0757

          k = 0.0000-1.0000 0.0000 ( 35284 PWs)   bands (ev):

   -21.8713 -21.8704 -21.8662 -21.8644 -21.8451 -21.8433 -21.8410 -21.8397
   -21.7909 -21.7898 -21.7863 -21.7853 -21.7759 -21.7750 -21.7748 -21.7721
   -21.7483 -21.7474 -21.7443 -21.7435 -21.7409 -21.7380 -21.7110 -21.7096
   -21.6902 -21.6896 -21.6880 -21.6879 -21.6816 -21.6809 -21.6734 -21.6726
   -21.6707 -21.6704 -21.6670 -21.6663 -21.6462 -21.6460 -21.6364 -21.6362
   -21.6263 -21.6258 -21.6255 -21.6248 -21.6114 -21.6110 -21.6006 -21.6001
   -21.5881 -21.5880 -21.5871 -21.5869 -21.5604 -21.5594 -21.5554 -21.5549
   -21.5331 -21.5324 -21.5158 -21.5154 -21.4103 -21.4080 -21.3980 -21.3963
   -21.3917 -21.3895 -21.3871 -21.3852 -21.3557 -21.3547 -21.3527 -21.3518
   -21.3481 -21.3456 -21.3361 -21.3341 -21.3166 -21.3152 -21.2935 -21.2920
    -7.4389  -7.4280  -6.9354  -6.9287  -5.6231  -5.6029  -5.5705  -5.5673
    -5.3198  -5.3134  -4.6530  -4.6490  -3.9522  -3.9427  -2.8369  -2.8339
    -0.2759  -0.2706  -0.2550  -0.2522   0.0517   0.0542   0.2025   0.2041
     1.7015   1.7097   1.8035   1.8090   1.8891   1.8939   2.1524   2.1596
     2.3823   2.3852   2.8191   2.8207   4.5663   4.5682   4.6170   4.6202
     5.1309   5.1345   5.2811   5.2866   6.1901   6.1949   7.1037   7.1089
     7.2618   7.2683   7.5642   7.5679   7.9627   7.9681

          k =-0.5000 0.0000 0.0000 ( 35510 PWs)   bands (ev):

   -21.8789 -21.8784 -21.8593 -21.8580 -21.8550 -21.8521 -21.8279 -21.8263
   -21.8053 -21.8049 -21.8035 -21.8019 -21.7936 -21.7885 -21.7722 -21.7697
   -21.7651 -21.7626 -21.7494 -21.7481 -21.7344 -21.7334 -21.7314 -21.7311
   -21.7007 -21.6979 -21.6968 -21.6961 -21.6878 -21.6858 -21.6853 -21.6851
   -21.6478 -21.6475 -21.6458 -21.6443 -21.6394 -21.6345 -21.6324 -21.6309
   -21.6273 -21.6269 -21.6265 -21.6255 -21.6252 -21.6242 -21.6123 -21.6118
   -21.5890 -21.5866 -21.5817 -21.5781 -21.5775 -21.5757 -21.5742 -21.5735
   -21.5255 -21.5236 -21.5152 -21.5140 -21.4073 -21.4049 -21.4045 -21.4007
   -21.3867 -21.3841 -21.3835 -21.3798 -21.3635 -21.3632 -21.3613 -21.3605
   -21.3510 -21.3490 -21.3483 -21.3448 -21.3106 -21.3096 -21.3088 -21.3072
    -8.5955  -8.5897  -7.9205  -7.9097  -7.0365  -7.0332  -5.5624  -5.5584
    -4.9253  -4.9175  -3.4787  -3.4765  -2.2193  -2.2114  -1.0773  -1.0679
    -0.5531  -0.5440   0.4239   0.4387   0.7976   0.8070   1.4465   1.4661
     1.6344   1.6530   2.0594   2.0623   2.1876   2.1977   2.6845   2.7198
     4.1151   4.1406   4.4468   4.4604   4.6093   4.6370   4.8153   4.8175
     4.9412   4.9464   6.0573   6.0699   6.3664   6.3788   6.6706   6.6991
     7.0299   7.0404   7.4452   7.4795   7.5451   7.5498

          k =-0.5000 0.5000 0.0000 ( 35426 PWs)   bands (ev):

   -21.8777 -21.8772 -21.8687 -21.8679 -21.8554 -21.8546 -21.8335 -21.8316
   -21.7965 -21.7931 -21.7919 -21.7865 -21.7804 -21.7788 -21.7721 -21.7702
   -21.7589 -21.7568 -21.7374 -21.7368 -21.7362 -21.7343 -21.7161 -21.7142
   -21.7006 -21.6986 -21.6947 -21.6915 -21.6868 -21.6844 -21.6817 -21.6812
   -21.6790 -21.6768 -21.6485 -21.6483 -21.6441 -21.6422 -21.6354 -21.6330
   -21.6282 -21.6268 -21.6264 -21.6230 -21.6166 -21.6123 -21.6119 -21.6075
   -21.5853 -21.5834 -21.5810 -21.5799 -21.5748 -21.5738 -21.5672 -21.5648
   -21.5234 -21.5224 -21.5135 -21.5127 -21.4135 -21.4110 -21.4109 -21.4073
   -21.3836 -21.3819 -21.3817 -21.3788 -21.3586 -21.3579 -21.3562 -21.3550
   -21.3502 -21.3490 -21.3478 -21.3448 -21.3079 -21.3068 -21.3060 -21.3040
    -8.1268  -8.1215  -7.4925  -7.4832  -6.6720  -6.6695  -5.7049  -5.7018
    -4.7249  -4.7170  -3.6625  -3.6543  -2.6417  -2.6306  -1.9082  -1.8997
    -0.6153  -0.6088  -0.5618  -0.5580   0.2264   0.2344   0.4078   0.4139
     1.1113   1.1157   1.4469   1.4526   2.3441   2.3850   2.4237   2.4537
     3.1616   3.1654   3.4967   3.5032   5.1940   5.2203   5.5932   5.6078
     6.0967   6.1122   6.3793   6.3990   6.7813   6.7983   7.0101   7.0370
     7.6081   7.6127   7.6599   7.6643   7.9680   7.9906

          k =-0.5000-1.0000 0.0000 ( 35380 PWs)   bands (ev):

   -21.8755 -21.8751 -21.8745 -21.8731 -21.8438 -21.8422 -21.8414 -21.8404
   -21.7866 -21.7860 -21.7841 -21.7803 -21.7621 -21.7618 -21.7612 -21.7595
   -21.7588 -21.7580 -21.7568 -21.7553 -21.7267 -21.7256 -21.7254 -21.7243
   -21.6984 -21.6979 -21.6974 -21.6963 -21.6857 -21.6850 -21.6771 -21.6769
   -21.6700 -21.6696 -21.6668 -21.6667 -21.6442 -21.6441 -21.6347 -21.6345
   -21.6277 -21.6271 -21.6182 -21.6180 -21.6150 -21.6143 -21.6095 -21.6093
   -21.5824 -21.5812 -21.5760 -21.5754 -21.5728 -21.5716 -21.5700 -21.5695
   -21.5233 -21.5229 -21.5135 -21.5133 -21.4017 -21.4003 -21.3997 -21.3973
   -21.3969 -21.3959 -21.3952 -21.3926 -21.3535 -21.3531 -21.3521 -21.3519
   -21.3510 -21.3507 -21.3495 -21.3475 -21.3035 -21.3026 -21.3013 -21.2994
    -6.9518  -6.9450  -6.9363  -6.9351  -6.4417  -6.4391  -6.4369  -6.4263
    -4.2189  -4.2140  -4.2062  -4.1952  -3.3275  -3.3240  -3.3096  -3.3023
    -0.2853  -0.2843  -0.2773  -0.2750  -0.0049  -0.0007   0.0058   0.0107
     0.8253   0.8292   0.8310   0.8375   2.2767   2.2880   2.3102   2.3199
     2.4700   2.4801   2.4842   2.4953   5.0684   5.0792   5.0909   5.1057
     5.8624   5.8694   5.8845   5.8930   6.9816   6.9940   7.0006   7.0116
     7.4050   7.4190   7.4325   7.4464   8.4018   8.4270

     the Fermi energy is     2.6264 ev

!    total energy              =   -2857.29111732 Ry
     estimated scf accuracy    <       0.00000001 Ry
     smearing contrib. (-TS)   =      -0.00566823 Ry
     internal energy E=F+TS    =   -2857.28544909 Ry

     The total energy is F=E-TS. E is the sum of the following terms:
     one-electron contribution =   -7665.28733565 Ry
     hartree contribution      =    3932.88898662 Ry
     xc contribution           =    -697.00459449 Ry
     ewald contribution        =    1572.11749443 Ry

     convergence has been achieved in   7 iterations

     Forces acting on atoms (cartesian axes, Ry/au):

     atom    1 type  1   force =    -0.00037371    0.00012517   -0.00169274
     atom    2 type  1   force =     0.00003578   -0.00044245   -0.00081593
     atom    3 type  1   force =    -0.00057489   -0.00030701    0.00171841
     atom    4 type  1   force =     0.00044783   -0.00026858    0.00043823
     atom    5 type  1   force =    -0.00090585    0.00100974   -0.00007596
     atom    6 type  1   force =     0.00103629   -0.00021742   -0.00179696
     atom    7 type  1   force =     0.00020145    0.00023175    0.00021051
     atom    8 type  1   force =    -0.00001215   -0.00015999    0.00214755
     atom    9 type  1   force =     0.00028601   -0.00008421   -0.00151017
     atom   10 type  1   force =     0.00031567    0.00085043    0.00143986
     atom   11 type  1   force =     0.00026279   -0.00057475    0.00000671
     atom   12 type  1   force =    -0.00002568   -0.00169581   -0.00002042
     atom   13 type  1   force =    -0.00155837    0.00176938   -0.00057107
     atom   14 type  1   force =     0.00122689    0.00092080   -0.00058923
     atom   15 type  1   force =     0.00024854   -0.00123152   -0.00068165
     atom   16 type  1   force =    -0.00061060    0.00007447    0.00179286

     Total force =     0.006439     Total SCF correction =     0.000527
     Energy error            =      5.7E-05 Ry
     Gradient error          =      2.1E-03 Ry/Bohr

     number of scf cycles    =   5
     number of bfgs steps    =   4

     energy             old  =   -2857.2910607057 Ry
     energy             new  =   -2857.2911173175 Ry

     CASE: energy            _new < energy            _old

     new trust radius        =       0.0052120304 bohr
     new conv_thr            =       0.0000000100 Ry


ATOMIC_POSITIONS (angstrom)
Ge            0.0020953332        0.0117480823        4.9863133078
Ge            2.0444484517        0.0160190307        6.4692165788
Ge            2.0438295746        2.0555172282        7.8952236755
Ge           -0.0023940395        2.0285847795        9.3370853158
Ge            0.0028779958       -0.0127227720       10.7521936825
Ge            2.0373289615       -0.0042343021       12.2076836260
Ge            2.0509321714        2.0352133365       13.6348426435
Ge            0.0032855872        2.0346154909       15.1096263524
Ge            4.0705788600       -0.0085115989        4.9611774074
Ge            6.1068824290       -0.0078206647        6.4543008948
Ge            6.1173417097        2.0337563889        7.8878858056
Ge            4.0833948616        2.0412874218        9.3475055444
Ge            4.0840612403       -0.0017714677       10.7615917817
Ge            6.1241566584        0.0040729742       12.2060298770
Ge            6.1155375143        2.0466835525       13.6353714396
Ge            4.0848015558        2.0486222876       15.1340676476



     Writing output data file ./out/ge.save/
     NEW-OLD atomic charge density approx. for the potential

     total cpu time spent up to now is      115.0 secs

     Self-consistent Calculation

     iteration #  1     ecut=    60.00 Ry     beta= 0.40
     Davidson diagonalization with overlap
     ethr =  1.00E-06,  avg # of iterations =  3.0

     Threshold (ethr) on eigenvalues was too large:
     Diagonalizing with lowered threshold

     Davidson diagonalization with overlap
     ethr =  3.80E-09,  avg # of iterations =  4.5

     total cpu time spent up to now is      120.7 secs

     total energy              =   -2857.29117381 Ry
     estimated scf accuracy    <       0.00000510 Ry

     iteration #  2     ecut=    60.00 Ry     beta= 0.40
[...]

     the Fermi energy is     2.6267 ev

!    total energy              =   -2857.29117530 Ry
     estimated scf accuracy    <          8.8E-09 Ry
     smearing contrib. (-TS)   =      -0.00564880 Ry
     internal energy E=F+TS    =   -2857.28552650 Ry

     The total energy is F=E-TS. E is the sum of the following terms:
     one-electron contribution =   -7663.32658958 Ry
     hartree contribution      =    3931.91152664 Ry
     xc contribution           =    -697.00164898 Ry
     ewald contribution        =    1571.13118542 Ry

     convergence has been achieved in   8 iterations

     Forces acting on atoms (cartesian axes, Ry/au):

     atom    1 type  1   force =    -0.00043819    0.00011616   -0.00133957
     atom    2 type  1   force =     0.00011504   -0.00042041   -0.00073247
     atom    3 type  1   force =    -0.00039903   -0.00034070    0.00110683
     atom    4 type  1   force =     0.00043706   -0.00001966    0.00025415
     atom    5 type  1   force =    -0.00072205    0.00073581    0.00006612
     atom    6 type  1   force =     0.00079105   -0.00012128   -0.00120072
     atom    7 type  1   force =     0.00010121    0.00016361    0.00042845
     atom    8 type  1   force =    -0.00002627   -0.00014848    0.00158474
     atom    9 type  1   force =     0.00029654   -0.00008753   -0.00103535
     atom   10 type  1   force =     0.00026593    0.00062116    0.00089783
     atom   11 type  1   force =     0.00021790   -0.00036558   -0.00009971
     atom   12 type  1   force =    -0.00017760   -0.00096572   -0.00022017
     atom   13 type  1   force =    -0.00111132    0.00103512   -0.00046117
     atom   14 type  1   force =     0.00088185    0.00061375   -0.00030171
     atom   15 type  1   force =     0.00024405   -0.00089743   -0.00020425
     atom   16 type  1   force =    -0.00047618    0.00008119    0.00125700

     Total force =     0.004528     Total SCF correction =     0.000520
     SCF correction compared to forces is large: reduce conv_thr to get better values
     Energy error            =      5.8E-05 Ry
     Gradient error          =      1.6E-03 Ry/Bohr

     number of scf cycles    =   6
     number of bfgs steps    =   5

     energy             old  =   -2857.2911173175 Ry
     energy             new  =   -2857.2911753016 Ry

     CASE: energy            _new < energy            _old

     new trust radius        =       0.0078180457 bohr
     new conv_thr            =       0.0000000100 Ry


ATOMIC_POSITIONS (angstrom)
Ge            0.0014868325        0.0119574808        4.9832551997
Ge            2.0441149206        0.0152413203        6.4683099602
Ge            2.0429020579        2.0548739203        7.8972962764
Ge           -0.0025060024        2.0287168568        9.3383429229
Ge            0.0021708390       -0.0115094931       10.7514931369
Ge            2.0381610111       -0.0043888395       12.2053077726
Ge            2.0510400933        2.0354443754       13.6343230581
Ge            0.0033233512        2.0343468945       15.1137545830
Ge            4.0714201754       -0.0086908548        4.9582858109
Ge            6.1074070669       -0.0069867275        6.4564397690
Ge            6.1179913441        2.0333935267        7.8886785556
Ge            4.0838351270        2.0398923335        9.3478015425
Ge            4.0827255845       -0.0002417918       10.7603172233
Ge            6.1251415353        0.0046987732       12.2047129001
Ge            6.1156931041        2.0455205707       13.6342547778
Ge            4.0842518246        2.0487914221       15.1375420915



     Writing output data file ./out/ge.save/
     NEW-OLD atomic charge density approx. for the potential

     total cpu time spent up to now is      134.7 secs

     Self-consistent Calculation

     iteration #  1     ecut=    60.00 Ry     beta= 0.40
     Davidson diagonalization with overlap
     ethr =  1.00E-06,  avg # of iterations =  4.0

     Threshold (ethr) on eigenvalues was too large:
     Diagonalizing with lowered threshold

     Davidson diagonalization with overlap
     ethr =  6.96E-09,  avg # of iterations =  4.0

     total cpu time spent up to now is      140.6 secs

     total energy              =   -2857.29122064 Ry
     estimated scf accuracy    <       0.00001001 Ry

     iteration #  2     ecut=    60.00 Ry     beta= 0.40
     Davidson diagonalization with overlap
     ethr =  4.47E-09,  avg # of iterations =  2.7

     total cpu time spent up to now is      142.6 secs

     total energy              =   -2857.29121764 Ry
     estimated scf accuracy    <       0.00005797 Ry

     iteration #  3     ecut=    60.00 Ry     beta= 0.40
     Davidson diagonalization with overlap
     ethr =  4.47E-09,  avg # of iterations =  2.5

     total cpu time spent up to now is      144.6 secs

     total energy              =   -2857.29122085 Ry
     estimated scf accuracy    <       0.00002726 Ry

     iteration #  4     ecut=    60.00 Ry     beta= 0.40
     Davidson diagonalization with overlap
     ethr =  4.47E-09,  avg # of iterations =  1.7

     total cpu time spent up to now is      146.4 secs

     total energy              =   -2857.29122185 Ry
     estimated scf accuracy    <       0.00003626 Ry

     iteration #  5     ecut=    60.00 Ry     beta= 0.40
     Davidson diagonalization with overlap
     ethr =  4.47E-09,  avg # of iterations =  1.5

     total cpu time spent up to now is      148.2 secs

     total energy              =   -2857.29122341 Ry
     estimated scf accuracy    <       0.00000046 Ry

     iteration #  6     ecut=    60.00 Ry     beta= 0.40
     Davidson diagonalization with overlap
     ethr =  2.07E-10,  avg # of iterations =  2.0

     total cpu time spent up to now is      150.1 secs

     total energy              =   -2857.29122343 Ry
     estimated scf accuracy    <       0.00000013 Ry

     iteration #  7     ecut=    60.00 Ry     beta= 0.40
     Davidson diagonalization with overlap
     ethr =  5.78E-11,  avg # of iterations =  2.0

     total cpu time spent up to now is      152.0 secs

     total energy              =   -2857.29122345 Ry
     estimated scf accuracy    <       0.00000004 Ry

     iteration #  8     ecut=    60.00 Ry     beta= 0.40
     Davidson diagonalization with overlap
     ethr =  1.88E-11,  avg # of iterations =  2.0

     total cpu time spent up to now is      153.9 secs

     End of self-consistent calculation

          k = 0.0000 0.0000 0.0000 ( 35449 PWs)   bands (ev):

   -21.8698 -21.8692 -21.8614 -21.8584 -21.8513 -21.8445 -21.8261 -21.8250
   -21.8218 -21.8169 -21.8067 -21.7914 -21.7879 -21.7840 -21.7831 -21.7802
   -21.7679 -21.7674 -21.7462 -21.7415 -21.7348 -21.7232 -21.7177 -21.7127
   -21.7026 -21.7018 -21.6959 -21.6952 -21.6834 -21.6826 -21.6761 -21.6742
   -21.6547 -21.6448 -21.6432 -21.6429 -21.6381 -21.6342 -21.6323 -21.6319
   -21.6316 -21.6313 -21.6297 -21.6254 -21.6238 -21.6192 -21.6119 -21.6114
   -21.6031 -21.5870 -21.5861 -21.5838 -21.5762 -21.5732 -21.5570 -21.5564
   -21.5322 -21.5300 -21.5133 -21.5131 -21.4074 -21.4063 -21.3978 -21.3967
   -21.3806 -21.3791 -21.3775 -21.3752 -21.3537 -21.3525 -21.3450 -21.3434
   -21.3426 -21.3416 -21.3410 -21.3409 -21.3154 -21.3145 -21.3058 -21.3033
    -9.0552  -8.3202  -7.4911  -7.3515  -7.3355  -7.2476  -6.0467  -5.0999
    -5.0408  -4.5457  -3.8821  -3.7347  -3.3816  -2.7331  -0.8153  -0.0040
     0.1058   0.4174   0.4347   1.1372   1.1655   1.1830   1.2545   1.3962
     1.6113   1.7738   1.8241   2.0537   2.1556   2.3434   2.8324   3.2342
     3.6920   3.9463   4.0056   4.2982   4.3220   4.5255   4.6712   4.7063
     4.9470   4.9973   5.0094   5.0113   5.2229   5.4064   6.2305   6.7067
     6.7517   6.8889   7.1749   7.1798   7.3259   7.3610

          k = 0.0000 0.5000 0.0000 ( 35445 PWs)   bands (ev):

   -21.8726 -21.8698 -21.8679 -21.8673 -21.8628 -21.8470 -21.8335 -21.8322
   -21.8051 -21.8041 -21.7985 -21.7886 -21.7872 -21.7826 -21.7793 -21.7694
   -21.7612 -21.7434 -21.7432 -21.7381 -21.7375 -21.7370 -21.7060 -21.7054
   -21.7024 -21.7001 -21.6920 -21.6898 -21.6883 -21.6810 -21.6790 -21.6785
   -21.6731 -21.6713 -21.6577 -21.6488 -21.6474 -21.6446 -21.6394 -21.6353
   -21.6288 -21.6275 -21.6262 -21.6244 -21.6164 -21.6123 -21.6112 -21.6085
   -21.6012 -21.5879 -21.5858 -21.5746 -21.5744 -21.5626 -21.5569 -21.5551
   -21.5322 -21.5314 -21.5145 -21.5142 -21.4145 -21.4121 -21.4035 -21.4025
   -21.3775 -21.3758 -21.3739 -21.3728 -21.3533 -21.3523 -21.3467 -21.3448
   -21.3438 -21.3429 -21.3387 -21.3377 -21.3153 -21.3129 -21.3000 -21.2977
    -8.5931  -7.9106  -7.0376  -6.9943  -6.8558  -6.7571  -6.2171  -4.8985
    -4.8498  -4.3288  -4.1055  -4.0907  -3.8670  -3.2107  -2.1097  -1.1565
    -0.3644  -0.3511  -0.2406   0.1766   0.2233   0.5168   0.8224   0.8668
     0.9446   1.4622   1.9304   1.9548   2.0945   2.1845   2.6273   2.6464
     2.8773   3.3056   3.4891   3.7404   4.5280   4.6693   4.8598   4.9797
     5.0754   5.1654   5.6334   5.8000   5.9545   6.5509   6.7572   6.8864
     6.8949   7.4320   7.5158   7.5464   7.6431   8.0807

          k = 0.0000-1.0000 0.0000 ( 35284 PWs)   bands (ev):

   -21.8719 -21.8708 -21.8677 -21.8670 -21.8470 -21.8466 -21.8419 -21.8407
   -21.7906 -21.7895 -21.7839 -21.7826 -21.7766 -21.7762 -21.7718 -21.7705
   -21.7483 -21.7473 -21.7427 -21.7419 -21.7384 -21.7368 -21.7099 -21.7091
   -21.6910 -21.6907 -21.6891 -21.6888 -21.6814 -21.6806 -21.6743 -21.6736
   -21.6711 -21.6707 -21.6671 -21.6666 -21.6468 -21.6464 -21.6373 -21.6372
   -21.6269 -21.6266 -21.6255 -21.6246 -21.6121 -21.6117 -21.6014 -21.6010
   -21.5889 -21.5887 -21.5853 -21.5848 -21.5612 -21.5610 -21.5536 -21.5533
   -21.5320 -21.5314 -21.5148 -21.5147 -21.4039 -21.4028 -21.3923 -21.3914
   -21.3865 -21.3856 -21.3822 -21.3813 -21.3505 -21.3504 -21.3482 -21.3478
   -21.3427 -21.3418 -21.3306 -21.3296 -21.3132 -21.3124 -21.2899 -21.2891
    -7.4387  -7.4348  -6.9156  -6.9135  -5.6204  -5.6179  -5.5697  -5.5657
    -5.3043  -5.3013  -4.6398  -4.6388  -3.9476  -3.9459  -2.8410  -2.8395
    -0.2714  -0.2704  -0.2573  -0.2534   0.0558   0.0567   0.2088   0.2096
     1.6990   1.7033   1.8003   1.8052   1.8898   1.8934   2.1790   2.1801
     2.3869   2.3889   2.8137   2.8143   4.5625   4.5639   4.6126   4.6168
     5.1436   5.1439   5.2833   5.2889   6.1825   6.1851   7.1063   7.1093
     7.2689   7.2715   7.5557   7.5568   7.9532   7.9552

          k =-0.5000 0.0000 0.0000 ( 35510 PWs)   bands (ev):

   -21.8798 -21.8796 -21.8593 -21.8588 -21.8572 -21.8560 -21.8290 -21.8281
   -21.8053 -21.8045 -21.8025 -21.8016 -21.7893 -21.7876 -21.7706 -21.7697
   -21.7627 -21.7619 -21.7491 -21.7485 -21.7329 -21.7322 -21.7319 -21.7309
   -21.6994 -21.6980 -21.6965 -21.6958 -21.6865 -21.6862 -21.6855 -21.6855
   -21.6488 -21.6484 -21.6479 -21.6447 -21.6405 -21.6356 -21.6324 -21.6320
   -21.6285 -21.6282 -21.6270 -21.6262 -21.6253 -21.6243 -21.6130 -21.6124
   -21.5884 -21.5871 -21.5791 -21.5791 -21.5783 -21.5765 -21.5720 -21.5715
   -21.5247 -21.5228 -21.5148 -21.5137 -21.4012 -21.4007 -21.3984 -21.3976
   -21.3803 -21.3797 -21.3770 -21.3767 -21.3581 -21.3579 -21.3564 -21.3562
   -21.3448 -21.3438 -21.3424 -21.3420 -21.3075 -21.3067 -21.3058 -21.3050
    -8.5953  -8.5938  -7.9059  -7.9026  -7.0282  -7.0266  -5.5558  -5.5538
    -4.9219  -4.9162  -3.4755  -3.4732  -2.2216  -2.2122  -1.0790  -1.0672
    -0.5467  -0.5410   0.4348   0.4479   0.7976   0.8008   1.4638   1.4695
     1.6377   1.6544   2.0581   2.0611   2.1944   2.1962   2.6800   2.7153
     4.1119   4.1382   4.4519   4.4576   4.6100   4.6343   4.8177   4.8207
     4.9437   4.9478   6.0584   6.0688   6.3596   6.3727   6.6641   6.6921
     7.0337   7.0441   7.4472   7.4790   7.5416   7.5451

          k =-0.5000 0.5000 0.0000 ( 35426 PWs)   bands (ev):

   -21.8785 -21.8783 -21.8703 -21.8698 -21.8569 -21.8566 -21.8344 -21.8335
   -21.7933 -21.7921 -21.7879 -21.7862 -21.7795 -21.7787 -21.7715 -21.7709
   -21.7569 -21.7562 -21.7366 -21.7362 -21.7349 -21.7341 -21.7162 -21.7154
   -21.6994 -21.6981 -21.6942 -21.6914 -21.6869 -21.6857 -21.6837 -21.6810
   -21.6797 -21.6772 -21.6495 -21.6493 -21.6446 -21.6427 -21.6364 -21.6340
   -21.6284 -21.6274 -21.6264 -21.6234 -21.6175 -21.6127 -21.6125 -21.6083
   -21.5854 -21.5846 -21.5787 -21.5780 -21.5725 -21.5720 -21.5681 -21.5666
   -21.5227 -21.5217 -21.5131 -21.5126 -21.4070 -21.4063 -21.4045 -21.4043
   -21.3775 -21.3768 -21.3758 -21.3755 -21.3535 -21.3532 -21.3516 -21.3508
   -21.3440 -21.3430 -21.3424 -21.3421 -21.3046 -21.3036 -21.3031 -21.3016
    -8.1266  -8.1255  -7.4789  -7.4759  -6.6625  -6.6607  -5.6976  -5.6972
    -4.7210  -4.7165  -3.6599  -3.6564  -2.6399  -2.6301  -1.9057  -1.8987
    -0.6130  -0.6096  -0.5634  -0.5591   0.2404   0.2462   0.4125   0.4186
     1.1183   1.1213   1.4505   1.4589   2.3394   2.3796   2.4186   2.4487
     3.1642   3.1682   3.4962   3.5028   5.1905   5.2172   5.6010   5.6147
     6.0925   6.1085   6.3668   6.3852   6.7762   6.7889   7.0023   7.0301
     7.6077   7.6093   7.6571   7.6635   7.9707   7.9948

          k =-0.5000-1.0000 0.0000 ( 35380 PWs)   bands (ev):

   -21.8764 -21.8758 -21.8754 -21.8748 -21.8447 -21.8444 -21.8439 -21.8431
   -21.7836 -21.7825 -21.7824 -21.7809 -21.7609 -21.7602 -21.7599 -21.7594
   -21.7576 -21.7567 -21.7564 -21.7560 -21.7261 -21.7255 -21.7250 -21.7246
   -21.6980 -21.6978 -21.6975 -21.6969 -21.6857 -21.6850 -21.6777 -21.6776
   -21.6706 -21.6703 -21.6675 -21.6674 -21.6449 -21.6444 -21.6358 -21.6356
   -21.6278 -21.6270 -21.6189 -21.6188 -21.6153 -21.6148 -21.6103 -21.6101
   -21.5799 -21.5793 -21.5747 -21.5746 -21.5727 -21.5726 -21.5703 -21.5702
   -21.5227 -21.5222 -21.5133 -21.5132 -21.3953 -21.3944 -21.3940 -21.3937
   -21.3913 -21.3903 -21.3900 -21.3897 -21.3479 -21.3476 -21.3474 -21.3468
   -21.3463 -21.3455 -21.3451 -21.3447 -21.3000 -21.2991 -21.2980 -21.2972
    -6.9480  -6.9477  -6.9434  -6.9417  -6.4223  -6.4217  -6.4188  -6.4142
    -4.2154  -4.2105  -4.2069  -4.2017  -3.3228  -3.3214  -3.3100  -3.3064
    -0.2842  -0.2833  -0.2756  -0.2742   0.0010   0.0063   0.0114   0.0171
     0.8337   0.8380   0.8402   0.8455   2.2728   2.2845   2.3060   2.3164
     2.4676   2.4792   2.4827   2.4928   5.0731   5.0829   5.0941   5.1107
     5.8575   5.8635   5.8767   5.8882   6.9768   6.9883   6.9953   7.0051
     7.3954   7.4115   7.4242   7.4374   8.4013   8.4231

     the Fermi energy is     2.6269 ev

!    total energy              =   -2857.29122344 Ry
     estimated scf accuracy    <          8.0E-09 Ry
     smearing contrib. (-TS)   =      -0.00562507 Ry
     internal energy E=F+TS    =   -2857.28559837 Ry

     The total energy is F=E-TS. E is the sum of the following terms:
     one-electron contribution =   -7659.88522405 Ry
     hartree contribution      =    3930.19590422 Ry
     xc contribution           =    -696.99730881 Ry
     ewald contribution        =    1569.40103026 Ry

     convergence has been achieved in   8 iterations

     Forces acting on atoms (cartesian axes, Ry/au):

     atom    1 type  1   force =    -0.00045851    0.00010557   -0.00077941
     atom    2 type  1   force =     0.00019772   -0.00038181   -0.00056441
     atom    3 type  1   force =    -0.00013324   -0.00037801    0.00008775
     atom    4 type  1   force =     0.00031790    0.00033504    0.00004792
     atom    5 type  1   force =    -0.00034752    0.00033852    0.00022572
     atom    6 type  1   force =     0.00034920    0.00002190   -0.00023506
     atom    7 type  1   force =    -0.00004253    0.00005692    0.00058860
     atom    8 type  1   force =    -0.00003419   -0.00013168    0.00077314
     atom    9 type  1   force =     0.00030654   -0.00009284   -0.00035971
     atom   10 type  1   force =     0.00015284    0.00023407    0.00010208
     atom   11 type  1   force =     0.00014302   -0.00000934   -0.00017594
     atom   12 type  1   force =    -0.00029997    0.00006539   -0.00044806
     atom   13 type  1   force =    -0.00032613   -0.00000512   -0.00028241
     atom   14 type  1   force =     0.00023268    0.00008613    0.00011037
     atom   15 type  1   force =     0.00017530   -0.00033466    0.00042215
     atom   16 type  1   force =    -0.00023312    0.00008994    0.00048728

     Total force =     0.002167     Total SCF correction =     0.000544
     SCF correction compared to forces is large: reduce conv_thr to get better values
     Energy error            =      4.8E-05 Ry
     Gradient error          =      7.8E-04 Ry/Bohr

     bfgs converged in   7 scf cycles and   6 bfgs steps
     (criteria: energy <  1.0E-04 Ry, force <  1.0E-03 Ry/Bohr)

     End of BFGS Geometry Optimization

     Final energy             =   -2857.2912234414 Ry

     File ./out/ge.bfgs deleted, as requested
Begin final coordinates

ATOMIC_POSITIONS (angstrom)
Ge            0.0014868325        0.0119574808        4.9832551997
Ge            2.0441149206        0.0152413203        6.4683099602
Ge            2.0429020579        2.0548739203        7.8972962764
Ge           -0.0025060024        2.0287168568        9.3383429229
Ge            0.0021708390       -0.0115094931       10.7514931369
Ge            2.0381610111       -0.0043888395       12.2053077726
Ge            2.0510400933        2.0354443754       13.6343230581
Ge            0.0033233512        2.0343468945       15.1137545830
Ge            4.0714201754       -0.0086908548        4.9582858109
Ge            6.1074070669       -0.0069867275        6.4564397690
Ge            6.1179913441        2.0333935267        7.8886785556
Ge            4.0838351270        2.0398923335        9.3478015425
Ge            4.0827255845       -0.0002417918       10.7603172233
Ge            6.1251415353        0.0046987732       12.2047129001
Ge            6.1156931041        2.0455205707       13.6342547778
Ge            4.0842518246        2.0487914221       15.1375420915
End final coordinates



     Writing output data file ./out/ge.save/
 
     init_run     :      0.67s CPU      0.99s WALL (       1 calls)
     electrons    :    118.84s CPU    149.45s WALL (       7 calls)
     update_pot   :      0.31s CPU      0.34s WALL (       6 calls)
     forces       :      2.17s CPU      3.39s WALL (       7 calls)

     Called by init_run:
     wfcinit      :      0.57s CPU      0.82s WALL (       1 calls)
     potinit      :      0.03s CPU      0.04s WALL (       1 calls)
     hinit0       :      0.03s CPU      0.07s WALL (       1 calls)

     Called by electrons:
     c_bands      :    105.65s CPU    135.00s WALL (      68 calls)
     sum_band     :     12.64s CPU     13.62s WALL (      68 calls)
     v_of_rho     :      0.40s CPU      0.52s WALL (      68 calls)
     mix_rho      :      0.12s CPU      0.13s WALL (      68 calls)

     Called by c_bands:
     init_us_2    :      1.59s CPU      1.63s WALL (     864 calls)
     cegterg      :     99.43s CPU    128.49s WALL (     408 calls)

     Called by *egterg:
     cdiaghg      :     13.57s CPU     30.34s WALL (    1557 calls)
     h_psi        :     61.62s CPU     68.05s WALL (    1641 calls)
     g_psi        :      0.24s CPU      0.27s WALL (    1227 calls)

     Called by h_psi:
     h_psi:calbec :      6.34s CPU      7.34s WALL (    1641 calls)
     vloc_psi     :     49.86s CPU     55.17s WALL (    1641 calls)
     add_vuspsi   :      4.89s CPU      4.98s WALL (    1641 calls)

     General routines
     calbec       :      7.52s CPU      9.66s WALL (    1809 calls)
     fft          :      0.34s CPU      0.52s WALL (     763 calls)
     ffts         :      0.02s CPU      0.03s WALL (      68 calls)
     fftw         :     56.48s CPU     62.30s WALL (  313358 calls)
 
     Parallel routines
 
     PWSCF        :   2m 2.51s CPU   2m35.45s WALL

 
   This run was terminated on:  22:53:40  28Apr2025            

=------------------------------------------------------------------------------=
   JOB DONE.
=------------------------------------------------------------------------------=
