
     Program PWSCF v.6.8 starts on 28Apr2025 at 10:44:46 

     This program is part of the open-source Quantum ESPRESSO suite
     for quantum simulation of materials; please cite
         "P. Giannozzi et al., J. Phys.:Condens. Matter 21 395502 (2009);
         "P. Giannozzi et al., J. Phys.:Condens. Matter 29 465901 (2017);
         "P. Giannozzi et al., J. Chem. Phys. 152 154105 (2020);
          URL http://www.quantum-espresso.org", 
     in publications or presentations arising from this work. More details at
     http://www.quantum-espresso.org/quote

     Parallel version (MPI & OpenMP), running on      56 processor cores
     Number of MPI processes:                56
     Threads/MPI process:                     1

     MPI processes distributed on     1 nodes
     R & G space division:  proc/nbgrp/npool/nimage =      56
     186241 MiB available memory on the printing compute node when the environment starts
 
     Reading input from surface_relax.in
Warning: card &CELL ignored
Warning: card / ignored
Warning: card &FCP ignored
Warning: card / ignored
Warning: card &RISM ignored
Warning: card / ignored

     Current dimensions of program PWSCF are:
     Max number of different atomic species (ntypx) = 10
     Max number of k-points (npk) =  40000
     Max angular momentum in pseudopotentials (lmaxx) =  4
     Found symmetry operation: I + (  0.5000  0.0000  0.0000)
     This is a supercell, fractional translations are disabled

     Subspace diagonalization in iterative solution of the eigenvalue problem:
     one sub-group per band group will be used
     scalapack distributed-memory algorithm (size of sub-group:  7*  7 procs)

 
     Parallelization info
     --------------------
     sticks:   dense  smooth     PW     G-vecs:    dense   smooth      PW
     Min          34      34      9                 4694     4694     695
     Max          35      35     10                 4708     4708     716
     Sum        1905    1905    533               263439   263439   39347
 
     Using Slab Decomposition
 


     bravais-lattice index     =            0
     lattice parameter (alat)  =      15.1659  a.u.
     unit-cell volume          =    4194.4686 (a.u.)^3
     number of atoms/cell      =           16
     number of atomic types    =            1
     number of electrons       =       224.00
     number of Kohn-Sham states=          134
     kinetic-energy cutoff     =      60.0000  Ry
     charge density cutoff     =     240.0000  Ry
     scf convergence threshold =      1.0E-06
     mixing beta               =       0.4000
     number of iterations used =            8  plain     mixing
     energy convergence thresh.=      1.0E-04
     force convergence thresh. =      1.0E-03
     Exchange-correlation= PBE
                           (   1   4   3   4   0   0   0)
     nstep                     =           50


     celldm(1)=  15.165913  celldm(2)=   0.000000  celldm(3)=   0.000000
     celldm(4)=   0.000000  celldm(5)=   0.000000  celldm(6)=   0.000000

     crystal axes: (cart. coord. in units of alat)
               a(1) = (   1.000000   0.000000   0.000000 )  
               a(2) = (   0.250000   0.433013   0.000000 )  
               a(3) = (   0.000000   0.000000   2.776966 )  

     reciprocal axes: (cart. coord. in units 2 pi/alat)
               b(1) = (  1.000000 -0.577351  0.000000 )  
               b(2) = (  0.000000  2.309401  0.000000 )  
               b(3) = (  0.000000  0.000000  0.360105 )  


     PseudoPot. # 1 for Ge read from file:
     ./Ge.upf
     MD5 check sum: 087fa14d6c89b52166990835c3b338da
     Pseudo is Norm-conserving + core correction, Zval = 14.0
     Generated using ONCVPSP code by D. R. Hamann
     Using radial grid of 1560 points,  6 beta functions with: 
                l(1) =   0
                l(2) =   0
                l(3) =   1
                l(4) =   1
                l(5) =   2
                l(6) =   2

     atomic species   valence    mass     pseudopotential
        Ge            14.00    72.63000     Ge( 1.00)

     No symmetry found



   Cartesian axes

     site n.     atom                  positions (alat units)
         1           Ge  tau(   1) = (   0.1250001   0.0721688   0.9292038  )
         2           Ge  tau(   2) = (   0.1250000   0.0721688   0.6230176  )
         3           Ge  tau(   3) = (   0.3750002   0.2165064   1.3374521  )
         4           Ge  tau(   4) = (   0.3750001   0.2165064   1.0312659  )
         5           Ge  tau(   5) = (   0.6250003   0.3608439   1.7457004  )
         6           Ge  tau(   6) = (   0.6250002   0.3608439   1.4395142  )
         7           Ge  tau(   7) = (   0.1250003   0.0721688   2.1539487  )
         8           Ge  tau(   8) = (   0.1250002   0.0721688   1.8477625  )
         9           Ge  tau(   9) = (   0.6250001   0.0721688   0.9292038  )
        10           Ge  tau(  10) = (   0.6250000   0.0721688   0.6230176  )
        11           Ge  tau(  11) = (   0.8750002   0.2165064   1.3374521  )
        12           Ge  tau(  12) = (   0.8750001   0.2165064   1.0312659  )
        13           Ge  tau(  13) = (   1.1250003   0.3608439   1.7457004  )
        14           Ge  tau(  14) = (   1.1250002   0.3608439   1.4395142  )
        15           Ge  tau(  15) = (   0.6250003   0.0721688   2.1539487  )
        16           Ge  tau(  16) = (   0.6250002   0.0721688   1.8477625  )

     number of k points=     6  Gaussian smearing, width (Ry)=  0.0100
                       cart. coord. in units 2pi/alat
        k(    1) = (   0.0000000   0.0000000   0.0000000), wk =   0.2500000
        k(    2) = (   0.0000000   0.5773503   0.0000000), wk =   0.5000000
        k(    3) = (   0.0000000  -1.1547005   0.0000000), wk =   0.2500000
        k(    4) = (  -0.5000000   0.2886753   0.0000000), wk =   0.2500000
        k(    5) = (  -0.5000000  -0.8660253   0.0000000), wk =   0.2500000
        k(    6) = (  -0.5000000  -0.2886750   0.0000000), wk =   0.5000000

     Dense  grid:   263439 G-vectors     FFT dimensions: (  75,  40, 216)

     Estimated max dynamical RAM per process >      20.46 MB

     Estimated total dynamical RAM >       1.12 GB

     Initial potential from superposition of free atoms

     starting charge  223.98683, renormalised to  224.00000

     negative rho (up, down):  9.942E-06 0.000E+00
     Starting wfcs are  144 randomized atomic wfcs

     total cpu time spent up to now is        1.1 secs

     Self-consistent Calculation

     iteration #  1     ecut=    60.00 Ry     beta= 0.40
     Davidson diagonalization with overlap
     ethr =  1.00E-02,  avg # of iterations =  3.0

     Threshold (ethr) on eigenvalues was too large:
     Diagonalizing with lowered threshold

     Davidson diagonalization with overlap
     ethr =  3.79E-04,  avg # of iterations =  3.2

     negative rho (up, down):  2.763E-06 0.000E+00

     total cpu time spent up to now is        5.7 secs

     total energy              =   -2856.87853701 Ry
     estimated scf accuracy    <       0.92091194 Ry

     iteration #  2     ecut=    60.00 Ry     beta= 0.40
     Davidson diagonalization with overlap
     ethr =  4.11E-04,  avg # of iterations =  8.0

     negative rho (up, down):  5.487E-07 0.000E+00

     total cpu time spent up to now is        8.8 secs

     total energy              =   -2855.42291382 Ry
     estimated scf accuracy    <      34.95124866 Ry

     iteration #  3     ecut=    60.00 Ry     beta= 0.40
     Davidson diagonalization with overlap
     ethr =  4.11E-04,  avg # of iterations =  9.3

     total cpu time spent up to now is       11.8 secs

     total energy              =   -2857.20552511 Ry
     estimated scf accuracy    <       0.37218065 Ry

     iteration #  4     ecut=    60.00 Ry     beta= 0.40
     Davidson diagonalization with overlap
     ethr =  1.66E-04,  avg # of iterations =  2.2

     total cpu time spent up to now is       13.7 secs

     total energy              =   -2857.21666417 Ry
     estimated scf accuracy    <       0.03163002 Ry

     iteration #  5     ecut=    60.00 Ry     beta= 0.40
     Davidson diagonalization with overlap
     ethr =  1.41E-05,  avg # of iterations = 13.0

     total cpu time spent up to now is       16.8 secs

     total energy              =   -2857.21855858 Ry
     estimated scf accuracy    <       0.01564147 Ry

     iteration #  6     ecut=    60.00 Ry     beta= 0.40
     Davidson diagonalization with overlap
     ethr =  6.98E-06,  avg # of iterations =  7.7

     total cpu time spent up to now is       19.2 secs

     total energy              =   -2857.22001344 Ry
     estimated scf accuracy    <       0.00844651 Ry

     iteration #  7     ecut=    60.00 Ry     beta= 0.40
     Davidson diagonalization with overlap
     ethr =  3.77E-06,  avg # of iterations =  2.3

     total cpu time spent up to now is       21.0 secs

     total energy              =   -2857.22044574 Ry
     estimated scf accuracy    <       0.00031158 Ry

     iteration #  8     ecut=    60.00 Ry     beta= 0.40
     Davidson diagonalization with overlap
     ethr =  1.39E-07,  avg # of iterations =  2.0

     total cpu time spent up to now is       22.9 secs

     total energy              =   -2857.22048761 Ry
     estimated scf accuracy    <       0.00014065 Ry

     iteration #  9     ecut=    60.00 Ry     beta= 0.40
     Davidson diagonalization with overlap
     ethr =  6.28E-08,  avg # of iterations =  2.0

     total cpu time spent up to now is       24.8 secs

     total energy              =   -2857.22050832 Ry
     estimated scf accuracy    <       0.00000903 Ry

     iteration # 10     ecut=    60.00 Ry     beta= 0.40
     Davidson diagonalization with overlap
     ethr =  4.03E-09,  avg # of iterations =  2.3

     total cpu time spent up to now is       26.7 secs

     total energy              =   -2857.22051020 Ry
     estimated scf accuracy    <       0.00000152 Ry

     iteration # 11     ecut=    60.00 Ry     beta= 0.40
     Davidson diagonalization with overlap
     ethr =  6.78E-10,  avg # of iterations =  2.0

     total cpu time spent up to now is       28.6 secs

     End of self-consistent calculation

          k = 0.0000 0.0000 0.0000 ( 32973 PWs)   bands (ev):

   -21.4116 -21.4111 -21.4111 -21.4106 -21.4098 -21.4098 -21.4070 -21.4063
   -21.2885 -21.2846 -21.2834 -21.2819 -21.2819 -21.2786 -21.2781 -21.2779
   -21.2775 -21.2773 -21.2773 -21.2761 -21.2758 -21.2750 -21.2750 -21.2734
   -21.2713 -21.2446 -21.2351 -21.2136 -21.2136 -21.2084 -21.1959 -21.1909
   -21.1759 -21.1759 -21.1653 -21.1626 -21.1626 -21.1579 -21.1444 -21.1415
   -21.1274 -21.1189 -21.1189 -21.1176 -21.1176 -21.1109 -21.0930 -21.0896
   -21.0798 -21.0542 -21.0524 -21.0205 -21.0205 -21.0194 -21.0097 -20.9941
   -20.9867 -20.9867 -20.9846 -20.9628 -20.8745 -20.8740 -20.8579 -20.8573
   -20.8532 -20.8532 -20.8529 -20.8529 -20.8424 -20.8387 -20.8312 -20.8310
   -20.8113 -20.8113 -20.8085 -20.8085 -20.8067 -20.8060 -20.8048 -20.8038
    -8.7944  -8.2255  -7.4890  -6.8033  -6.4334  -5.8949  -5.1428  -5.0243
    -4.7534  -4.2867  -3.7860  -3.0824  -3.0176  -2.4992  -0.6314   0.2244
     0.5077   0.8588   1.2890   1.3843   1.8197   1.9727   2.0675   2.3561
     2.4697   2.4697   2.7974   2.9018   2.9018   3.1212   3.3952   3.3952
     3.9904   4.3592   4.3870   4.6661   4.9596   5.1030   5.1687   5.2376
     5.7006   5.8104   5.8104   6.0123   6.0123   6.3185   7.0444   7.0599
     7.0600   7.2302   7.5751   7.5964   7.5964   7.6372

          k = 0.0000 0.5774 0.0000 ( 32917 PWs)   bands (ev):

   -21.4110 -21.4107 -21.4088 -21.4086 -21.4078 -21.4063 -21.4052 -21.4045
   -21.3002 -21.2875 -21.2854 -21.2833 -21.2832 -21.2811 -21.2801 -21.2800
   -21.2787 -21.2787 -21.2786 -21.2774 -21.2772 -21.2763 -21.2760 -21.2747
   -21.2685 -21.2556 -21.2205 -21.2023 -21.2000 -21.1993 -21.1895 -21.1844
   -21.1821 -21.1691 -21.1660 -21.1609 -21.1597 -21.1524 -21.1370 -21.1339
   -21.1182 -21.1171 -21.1135 -21.1079 -21.0983 -21.0936 -21.0922 -21.0828
   -21.0813 -21.0728 -21.0672 -21.0527 -21.0392 -21.0372 -20.9976 -20.9952
   -20.9835 -20.9724 -20.9715 -20.9507 -20.8895 -20.8884 -20.8744 -20.8738
   -20.8570 -20.8558 -20.8548 -20.8541 -20.8307 -20.8298 -20.8285 -20.8285
   -20.8073 -20.8058 -20.8053 -20.8050 -20.8050 -20.8050 -20.7966 -20.7945
    -8.1391  -7.5844  -6.9569  -6.8543  -6.4790  -5.8382  -5.0336  -4.7519
    -4.4042  -4.2225  -3.5164  -2.8940  -2.7579  -2.7027  -1.5959  -0.8168
    -0.1185  -0.0285  -0.0238   0.1024   0.4519   0.9512   1.2494   1.4823
     1.9935   2.0370   2.1795   2.3905   2.5688   2.6778   2.9161   2.9787
     3.5972   3.9021   4.0248   4.1269   5.1176   5.3192   5.5551   5.5710
     5.6386   6.2181   6.2955   6.7077   6.7216   7.1012   7.5201   7.5546
     7.9665   8.0292   8.0668   8.3177   8.4185   8.6503

          k = 0.0000-1.1547 0.0000 ( 32908 PWs)   bands (ev):

   -21.4116 -21.4116 -21.4106 -21.4106 -21.4070 -21.4070 -21.4063 -21.4063
   -21.2885 -21.2885 -21.2846 -21.2846 -21.2835 -21.2834 -21.2786 -21.2786
   -21.2781 -21.2781 -21.2776 -21.2775 -21.2758 -21.2758 -21.2734 -21.2734
   -21.2713 -21.2713 -21.2084 -21.2084 -21.1959 -21.1959 -21.1909 -21.1908
   -21.1653 -21.1653 -21.1579 -21.1579 -21.1444 -21.1444 -21.1415 -21.1415
   -21.1274 -21.1274 -21.1109 -21.1109 -21.0930 -21.0930 -21.0896 -21.0896
   -21.0798 -21.0798 -21.0542 -21.0542 -21.0524 -21.0524 -20.9941 -20.9941
   -20.9846 -20.9846 -20.9628 -20.9628 -20.8745 -20.8745 -20.8740 -20.8740
   -20.8579 -20.8579 -20.8573 -20.8573 -20.8312 -20.8312 -20.8310 -20.8310
   -20.8067 -20.8067 -20.8060 -20.8060 -20.8049 -20.8048 -20.8038 -20.8038
    -6.8033  -6.8033  -6.4334  -6.4334  -5.8949  -5.8949  -5.1428  -5.1428
    -4.2867  -4.2867  -3.7860  -3.7860  -3.0824  -3.0824  -3.0176  -3.0176
     0.2244   0.2244   0.5077   0.5077   0.8588   0.8588   1.3843   1.3843
     1.8197   1.8197   1.9727   1.9727   2.0675   2.0675   2.3561   2.3561
     2.7974   2.7974   4.6661   4.6661   4.9596   4.9596   5.1030   5.1030
     5.1687   5.1687   5.2376   5.2376   5.7006   5.7006   7.2302   7.2302
     7.5751   7.5751   7.9998   7.9998   8.3770   8.3770

          k =-0.5000 0.2887 0.0000 ( 32960 PWs)   bands (ev):

   -21.4110 -21.4110 -21.4107 -21.4106 -21.4078 -21.4078 -21.4063 -21.4063
   -21.2875 -21.2875 -21.2833 -21.2832 -21.2812 -21.2811 -21.2801 -21.2801
   -21.2800 -21.2800 -21.2787 -21.2786 -21.2763 -21.2763 -21.2761 -21.2760
   -21.2556 -21.2556 -21.2205 -21.2205 -21.2000 -21.2000 -21.1895 -21.1895
   -21.1844 -21.1844 -21.1691 -21.1691 -21.1597 -21.1596 -21.1524 -21.1524
   -21.1171 -21.1171 -21.1135 -21.1135 -21.0983 -21.0983 -21.0936 -21.0936
   -21.0672 -21.0672 -21.0392 -21.0392 -21.0373 -21.0372 -20.9977 -20.9976
   -20.9724 -20.9724 -20.9715 -20.9715 -20.8744 -20.8744 -20.8738 -20.8738
   -20.8570 -20.8570 -20.8558 -20.8558 -20.8299 -20.8298 -20.8285 -20.8285
   -20.8073 -20.8073 -20.8058 -20.8058 -20.8053 -20.8053 -20.8050 -20.8050
    -8.1391  -8.1391  -7.5844  -7.5844  -6.8543  -6.8542  -4.7519  -4.7519
    -4.4042  -4.4042  -2.7579  -2.7579  -1.5959  -1.5959  -0.8168  -0.8168
    -0.0238  -0.0238   0.9512   0.9512   1.4823   1.4823   1.9935   1.9935
     2.0370   2.0370   2.5688   2.5688   2.6778   2.6778   3.5972   3.5972
     4.0248   4.0248   5.1175   5.1176   5.3192   5.3192   5.5551   5.5551
     5.5710   5.5710   5.6386   5.6386   6.7077   6.7077   7.1012   7.1013
     7.5201   7.5201   8.0291   8.0292   8.4182   8.4183

          k =-0.5000-0.8660 0.0000 ( 32874 PWs)   bands (ev):

   -21.4088 -21.4088 -21.4086 -21.4085 -21.4053 -21.4052 -21.4045 -21.4045
   -21.3002 -21.3002 -21.2854 -21.2854 -21.2833 -21.2833 -21.2788 -21.2787
   -21.2786 -21.2786 -21.2774 -21.2774 -21.2773 -21.2772 -21.2747 -21.2747
   -21.2685 -21.2685 -21.2023 -21.2023 -21.1993 -21.1993 -21.1821 -21.1821
   -21.1660 -21.1660 -21.1609 -21.1609 -21.1370 -21.1370 -21.1339 -21.1339
   -21.1182 -21.1182 -21.1079 -21.1079 -21.0922 -21.0922 -21.0828 -21.0828
   -21.0813 -21.0813 -21.0728 -21.0728 -21.0527 -21.0527 -20.9952 -20.9952
   -20.9835 -20.9835 -20.9507 -20.9507 -20.8895 -20.8895 -20.8884 -20.8884
   -20.8548 -20.8548 -20.8541 -20.8541 -20.8307 -20.8307 -20.8285 -20.8285
   -20.8050 -20.8050 -20.8050 -20.8050 -20.7966 -20.7966 -20.7945 -20.7945
    -6.9569  -6.9569  -6.4790  -6.4790  -5.8382  -5.8382  -5.0336  -5.0336
    -4.2225  -4.2225  -3.5164  -3.5164  -2.8940  -2.8939  -2.7027  -2.7027
    -0.1185  -0.1185  -0.0285  -0.0285   0.1024   0.1024   0.4519   0.4519
     1.2494   1.2494   2.1795   2.1795   2.3905   2.3905   2.9161   2.9161
     2.9787   2.9787   3.9021   3.9021   4.1269   4.1269   6.2181   6.2181
     6.2955   6.2955   6.7216   6.7216   7.5546   7.5546   7.9665   7.9665
     8.0668   8.0668   8.3177   8.3178   8.6487   8.6487

          k =-0.5000-0.2887 0.0000 ( 32917 PWs)   bands (ev):

   -21.4110 -21.4107 -21.4088 -21.4086 -21.4078 -21.4063 -21.4052 -21.4045
   -21.3002 -21.2875 -21.2854 -21.2833 -21.2832 -21.2811 -21.2801 -21.2800
   -21.2787 -21.2787 -21.2786 -21.2774 -21.2772 -21.2763 -21.2760 -21.2747
   -21.2685 -21.2556 -21.2205 -21.2023 -21.2000 -21.1993 -21.1895 -21.1844
   -21.1821 -21.1691 -21.1660 -21.1609 -21.1597 -21.1524 -21.1370 -21.1339
   -21.1182 -21.1171 -21.1135 -21.1079 -21.0983 -21.0936 -21.0922 -21.0828
   -21.0813 -21.0728 -21.0672 -21.0527 -21.0392 -21.0372 -20.9976 -20.9952
   -20.9835 -20.9724 -20.9715 -20.9507 -20.8895 -20.8884 -20.8744 -20.8738
   -20.8570 -20.8558 -20.8548 -20.8541 -20.8307 -20.8298 -20.8285 -20.8285
   -20.8073 -20.8058 -20.8053 -20.8050 -20.8050 -20.8050 -20.7966 -20.7945
    -8.1391  -7.5844  -6.9569  -6.8543  -6.4790  -5.8382  -5.0336  -4.7519
    -4.4042  -4.2225  -3.5164  -2.8940  -2.7579  -2.7027  -1.5959  -0.8168
    -0.1185  -0.0285  -0.0238   0.1024   0.4519   0.9512   1.2494   1.4823
     1.9935   2.0370   2.1795   2.3905   2.5688   2.6778   2.9161   2.9787
     3.5972   3.9021   4.0248   4.1269   5.1176   5.3192   5.5551   5.5710
     5.6386   6.2181   6.2955   6.7077   6.7216   7.1013   7.5201   7.5546
     7.9665   8.0292   8.0671   8.3177   8.4183   8.6502

     the Fermi energy is     3.2448 ev

!    total energy              =   -2857.22051046 Ry
     estimated scf accuracy    <       0.00000017 Ry
     smearing contrib. (-TS)   =      -0.00083680 Ry
     internal energy E=F+TS    =   -2857.21967365 Ry

     The total energy is F=E-TS. E is the sum of the following terms:
     one-electron contribution =   -8567.75864096 Ry
     hartree contribution      =    4388.28596670 Ry
     xc contribution           =    -697.06128161 Ry
     ewald contribution        =    2019.31428222 Ry

     convergence has been achieved in  11 iterations

     Forces acting on atoms (cartesian axes, Ry/au):

     atom    1 type  1   force =     0.00001417    0.00000011   -0.01041767
     atom    2 type  1   force =     0.00000436   -0.00000213   -0.01357479
     atom    3 type  1   force =    -0.00000591    0.00000572   -0.00762676
     atom    4 type  1   force =    -0.00000805    0.00000584    0.01361134
     atom    5 type  1   force =     0.00000988   -0.00001266   -0.01350700
     atom    6 type  1   force =     0.00001657   -0.00000925    0.00742590
     atom    7 type  1   force =    -0.00000271    0.00000059    0.01372782
     atom    8 type  1   force =    -0.00000048    0.00000100    0.01035354
     atom    9 type  1   force =    -0.00001273    0.00000513   -0.01041519
     atom   10 type  1   force =    -0.00000529    0.00000348   -0.01357263
     atom   11 type  1   force =     0.00000849   -0.00000558   -0.00762446
     atom   12 type  1   force =     0.00000806   -0.00000701    0.01361426
     atom   13 type  1   force =    -0.00000880    0.00000398   -0.01350800
     atom   14 type  1   force =    -0.00001687    0.00000076    0.00742710
     atom   15 type  1   force =     0.00000026    0.00000025    0.01372638
     atom   16 type  1   force =    -0.00000098    0.00000976    0.01036016

     Total force =     0.046250     Total SCF correction =     0.001419

     BFGS Geometry Optimization
     Energy error            =      0.0E+00 Ry
     Gradient error          =      1.4E-02 Ry/Bohr

     number of scf cycles    =   1
     number of bfgs steps    =   0

     energy             new  =   -2857.2205104567 Ry

     new trust radius        =       0.0137278207 bohr
     new conv_thr            =       0.0000010000 Ry


ATOMIC_POSITIONS (angstrom)
Ge            1.0031900972        0.5791874951        7.4517712336
Ge            1.0031845008        0.5791862519        4.9928165281
Ge            3.0095442596        1.7375652850       10.7296268257
Ge            3.0095427227        1.7375652930        8.2835815131
Ge            5.0159174027        2.8959303829       14.0028938377
Ge            5.0159205382        2.8959321304       11.5566870227
Ge            1.0031827881        0.5791879800       17.2936845887
Ge            1.0031835620        0.5791881382       14.8346149701
Ge            5.0159037189        0.5791901541        7.4517725471
Ge            5.0159072512        0.5791892251        4.9928176730
Ge            7.0222797358        1.7375593094       10.7296280436
Ge            7.0222791007        1.7375584940        8.2835830583
Ge            9.0286353760        2.8959391871       14.0028933112
Ge            9.0286306958        2.8959374265       11.5566876605
Ge            5.0159122150        0.5791878028       17.2936838289
Ge            5.0159111509        0.5791927739       14.8346184694



     Writing output data file ./out/ge.save/
     NEW-OLD atomic charge density approx. for the potential

     total cpu time spent up to now is       29.2 secs

     Self-consistent Calculation

     iteration #  1     ecut=    60.00 Ry     beta= 0.40
     Davidson diagonalization with overlap
     ethr =  1.00E-06,  avg # of iterations =  4.0

     Threshold (ethr) on eigenvalues was too large:
     Diagonalizing with lowered threshold

     Davidson diagonalization with overlap
     ethr =  8.24E-08,  avg # of iterations =  4.0

     total cpu time spent up to now is       34.9 secs

     total energy              =   -2857.22232574 Ry
     estimated scf accuracy    <       0.00018489 Ry

     iteration #  2     ecut=    60.00 Ry     beta= 0.40
     Davidson diagonalization with overlap
     ethr =  8.25E-08,  avg # of iterations =  3.3

     total cpu time spent up to now is       37.0 secs

     total energy              =   -2857.22224253 Ry
     estimated scf accuracy    <       0.00213683 Ry

     iteration #  3     ecut=    60.00 Ry     beta= 0.40
     Davidson diagonalization with overlap
     ethr =  8.25E-08,  avg # of iterations =  2.3

     total cpu time spent up to now is       38.9 secs

     total energy              =   -2857.22240518 Ry
     estimated scf accuracy    <       0.00001651 Ry

     iteration #  4     ecut=    60.00 Ry     beta= 0.40
     Davidson diagonalization with overlap
     ethr =  7.37E-09,  avg # of iterations =  2.7

     total cpu time spent up to now is       40.9 secs

     total energy              =   -2857.22240626 Ry
     estimated scf accuracy    <       0.00000898 Ry

     iteration #  5     ecut=    60.00 Ry     beta= 0.40
     Davidson diagonalization with overlap
     ethr =  4.01E-09,  avg # of iterations =  2.2

     total cpu time spent up to now is       42.7 secs

     total energy              =   -2857.22240470 Ry
     estimated scf accuracy    <       0.00006488 Ry

     iteration #  6     ecut=    60.00 Ry     beta= 0.40
     Davidson diagonalization with overlap
     ethr =  4.01E-09,  avg # of iterations =  2.0

     total cpu time spent up to now is       44.5 secs

     End of self-consistent calculation

          k = 0.0000 0.0000 0.0000 ( 32973 PWs)   bands (ev):

   -21.4177 -21.4173 -21.4173 -21.4169 -21.4159 -21.4159 -21.4131 -21.4125
   -21.2880 -21.2876 -21.2876 -21.2868 -21.2843 -21.2831 -21.2829 -21.2829
   -21.2828 -21.2822 -21.2819 -21.2812 -21.2803 -21.2738 -21.2708 -21.2708
   -21.2696 -21.2422 -21.2342 -21.2081 -21.2081 -21.2034 -21.1846 -21.1776
   -21.1636 -21.1636 -21.1566 -21.1511 -21.1511 -21.1498 -21.1365 -21.1285
   -21.1162 -21.1070 -21.1070 -21.1053 -21.1053 -21.1028 -21.0807 -21.0779
   -21.0687 -21.0477 -21.0464 -21.0162 -21.0162 -21.0066 -20.9989 -20.9864
   -20.9826 -20.9826 -20.9781 -20.9594 -20.8643 -20.8634 -20.8480 -20.8471
   -20.8427 -20.8427 -20.8419 -20.8419 -20.8335 -20.8295 -20.8218 -20.8210
   -20.8009 -20.8009 -20.7982 -20.7981 -20.7981 -20.7964 -20.7961 -20.7937
    -8.7858  -8.2020  -7.4634  -6.8026  -6.4195  -5.8753  -5.1429  -5.0334
    -4.7555  -4.2664  -3.7626  -3.0788  -3.0073  -2.5312  -0.6538   0.2172
     0.4933   0.8755   1.2783   1.4159   1.8124   2.0050   2.0631   2.3513
     2.4836   2.4836   2.7824   2.9310   2.9310   3.0911   3.4266   3.4266
     4.0242   4.3699   4.4285   4.6896   4.9576   5.1277   5.1637   5.2345
     5.6923   5.8068   5.8068   6.0140   6.0140   6.3364   7.0266   7.0584
     7.0584   7.2642   7.5582   7.6128   7.6128   7.6485

          k = 0.0000 0.5774 0.0000 ( 32917 PWs)   bands (ev):

   -21.4172 -21.4168 -21.4151 -21.4147 -21.4140 -21.4125 -21.4115 -21.4106
   -21.2946 -21.2880 -21.2879 -21.2876 -21.2865 -21.2857 -21.2846 -21.2846
   -21.2841 -21.2821 -21.2814 -21.2809 -21.2805 -21.2798 -21.2781 -21.2757
   -21.2670 -21.2532 -21.2167 -21.1922 -21.1899 -21.1854 -21.1825 -21.1760
   -21.1715 -21.1586 -21.1572 -21.1524 -21.1497 -21.1420 -21.1293 -21.1260
   -21.1095 -21.1067 -21.1030 -21.0975 -21.0871 -21.0821 -21.0821 -21.0706
   -21.0695 -21.0633 -21.0575 -21.0458 -21.0333 -21.0290 -20.9886 -20.9872
   -20.9763 -20.9679 -20.9666 -20.9479 -20.8787 -20.8773 -20.8640 -20.8631
   -20.8467 -20.8452 -20.8448 -20.8439 -20.8209 -20.8205 -20.8191 -20.8188
   -20.7971 -20.7967 -20.7965 -20.7960 -20.7954 -20.7951 -20.7871 -20.7849
    -8.1319  -7.5623  -6.9540  -6.8299  -6.4628  -5.8193  -5.0375  -4.7619
    -4.4043  -4.2056  -3.5064  -2.8853  -2.7766  -2.6851  -1.5918  -0.7953
    -0.0996  -0.0138  -0.0116   0.1173   0.4614   0.9620   1.2463   1.4981
     2.0243   2.0285   2.1728   2.3879   2.6005   2.6619   2.9074   2.9736
     3.5961   3.8989   4.0151   4.1209   5.1168   5.3363   5.5500   5.5910
     5.6360   6.2054   6.2856   6.7086   6.7097   7.1018   7.5203   7.5374
     7.9734   8.0067   8.0855   8.3233   8.4217   8.6659

          k = 0.0000-1.1547 0.0000 ( 32908 PWs)   bands (ev):

   -21.4177 -21.4177 -21.4169 -21.4169 -21.4131 -21.4131 -21.4125 -21.4125
   -21.2880 -21.2880 -21.2868 -21.2868 -21.2843 -21.2843 -21.2831 -21.2831
   -21.2822 -21.2822 -21.2819 -21.2819 -21.2812 -21.2812 -21.2738 -21.2738
   -21.2696 -21.2696 -21.2034 -21.2034 -21.1846 -21.1846 -21.1776 -21.1776
   -21.1566 -21.1566 -21.1498 -21.1498 -21.1365 -21.1365 -21.1285 -21.1285
   -21.1162 -21.1162 -21.1028 -21.1028 -21.0807 -21.0807 -21.0779 -21.0779
   -21.0687 -21.0687 -21.0477 -21.0477 -21.0464 -21.0464 -20.9864 -20.9864
   -20.9781 -20.9781 -20.9594 -20.9594 -20.8643 -20.8643 -20.8634 -20.8634
   -20.8480 -20.8480 -20.8471 -20.8471 -20.8218 -20.8218 -20.8210 -20.8210
   -20.7982 -20.7982 -20.7964 -20.7964 -20.7961 -20.7961 -20.7937 -20.7937
    -6.8026  -6.8026  -6.4195  -6.4195  -5.8753  -5.8753  -5.1429  -5.1429
    -4.2664  -4.2664  -3.7626  -3.7626  -3.0788  -3.0788  -3.0073  -3.0073
     0.2172   0.2172   0.4933   0.4933   0.8755   0.8755   1.4159   1.4159
     1.8124   1.8124   2.0050   2.0050   2.0631   2.0631   2.3513   2.3513
     2.7824   2.7824   4.6896   4.6896   4.9576   4.9576   5.1277   5.1277
     5.1637   5.1637   5.2345   5.2345   5.6923   5.6923   7.2642   7.2642
     7.5582   7.5582   7.9906   7.9906   8.3440   8.3440

          k =-0.5000 0.2887 0.0000 ( 32960 PWs)   bands (ev):

   -21.4172 -21.4172 -21.4168 -21.4168 -21.4140 -21.4140 -21.4125 -21.4125
   -21.2879 -21.2879 -21.2865 -21.2865 -21.2858 -21.2857 -21.2846 -21.2846
   -21.2821 -21.2821 -21.2805 -21.2805 -21.2798 -21.2798 -21.2781 -21.2781
   -21.2532 -21.2532 -21.2167 -21.2167 -21.1922 -21.1922 -21.1825 -21.1825
   -21.1715 -21.1715 -21.1572 -21.1572 -21.1497 -21.1497 -21.1420 -21.1420
   -21.1067 -21.1067 -21.1030 -21.1030 -21.0871 -21.0871 -21.0821 -21.0821
   -21.0575 -21.0575 -21.0333 -21.0333 -21.0290 -21.0290 -20.9886 -20.9886
   -20.9679 -20.9679 -20.9666 -20.9666 -20.8640 -20.8640 -20.8631 -20.8631
   -20.8467 -20.8466 -20.8452 -20.8452 -20.8205 -20.8205 -20.8191 -20.8191
   -20.7971 -20.7971 -20.7965 -20.7965 -20.7954 -20.7954 -20.7951 -20.7951
    -8.1319  -8.1319  -7.5623  -7.5623  -6.8299  -6.8298  -4.7619  -4.7619
    -4.4043  -4.4043  -2.7766  -2.7765  -1.5918  -1.5918  -0.7954  -0.7953
    -0.0117  -0.0116   0.9620   0.9620   1.4981   1.4981   2.0242   2.0243
     2.0285   2.0285   2.6005   2.6005   2.6619   2.6619   3.5961   3.5961
     4.0151   4.0151   5.1168   5.1168   5.3363   5.3363   5.5500   5.5500
     5.5910   5.5911   5.6360   5.6360   6.7086   6.7086   7.1018   7.1018
     7.5203   7.5203   8.0067   8.0067   8.4216   8.4216

          k =-0.5000-0.8660 0.0000 ( 32874 PWs)   bands (ev):

   -21.4151 -21.4151 -21.4147 -21.4147 -21.4115 -21.4115 -21.4106 -21.4106
   -21.2946 -21.2946 -21.2880 -21.2880 -21.2876 -21.2876 -21.2846 -21.2846
   -21.2841 -21.2841 -21.2814 -21.2814 -21.2809 -21.2809 -21.2757 -21.2757
   -21.2670 -21.2670 -21.1899 -21.1899 -21.1854 -21.1854 -21.1760 -21.1760
   -21.1586 -21.1586 -21.1524 -21.1524 -21.1293 -21.1293 -21.1260 -21.1260
   -21.1095 -21.1095 -21.0975 -21.0975 -21.0821 -21.0821 -21.0706 -21.0706
   -21.0695 -21.0695 -21.0633 -21.0633 -21.0458 -21.0458 -20.9872 -20.9872
   -20.9763 -20.9762 -20.9479 -20.9479 -20.8787 -20.8787 -20.8773 -20.8773
   -20.8448 -20.8448 -20.8439 -20.8439 -20.8209 -20.8209 -20.8188 -20.8188
   -20.7967 -20.7967 -20.7960 -20.7960 -20.7871 -20.7871 -20.7849 -20.7849
    -6.9540  -6.9540  -6.4628  -6.4628  -5.8193  -5.8193  -5.0375  -5.0375
    -4.2056  -4.2056  -3.5064  -3.5064  -2.8853  -2.8853  -2.6851  -2.6851
    -0.0996  -0.0995  -0.0138  -0.0138   0.1173   0.1173   0.4614   0.4614
     1.2463   1.2463   2.1728   2.1728   2.3879   2.3879   2.9074   2.9074
     2.9736   2.9736   3.8989   3.8989   4.1209   4.1209   6.2053   6.2054
     6.2856   6.2856   6.7097   6.7097   7.5374   7.5374   7.9734   7.9734
     8.0855   8.0855   8.3233   8.3234   8.6646   8.6646

          k =-0.5000-0.2887 0.0000 ( 32917 PWs)   bands (ev):

   -21.4172 -21.4168 -21.4151 -21.4147 -21.4140 -21.4125 -21.4115 -21.4106
   -21.2946 -21.2880 -21.2879 -21.2876 -21.2865 -21.2857 -21.2846 -21.2846
   -21.2841 -21.2821 -21.2814 -21.2809 -21.2805 -21.2798 -21.2781 -21.2757
   -21.2670 -21.2532 -21.2167 -21.1922 -21.1899 -21.1854 -21.1825 -21.1760
   -21.1715 -21.1586 -21.1572 -21.1524 -21.1497 -21.1420 -21.1293 -21.1260
   -21.1095 -21.1067 -21.1030 -21.0975 -21.0871 -21.0821 -21.0821 -21.0706
   -21.0695 -21.0633 -21.0575 -21.0458 -21.0333 -21.0290 -20.9886 -20.9872
   -20.9763 -20.9679 -20.9666 -20.9479 -20.8787 -20.8773 -20.8640 -20.8631
   -20.8467 -20.8452 -20.8448 -20.8439 -20.8209 -20.8205 -20.8191 -20.8188
   -20.7971 -20.7967 -20.7965 -20.7960 -20.7954 -20.7951 -20.7871 -20.7849
    -8.1319  -7.5623  -6.9540  -6.8299  -6.4628  -5.8193  -5.0375  -4.7619
    -4.4043  -4.2056  -3.5064  -2.8853  -2.7766  -2.6851  -1.5918  -0.7953
    -0.0996  -0.0138  -0.0116   0.1173   0.4614   0.9620   1.2463   1.4981
     2.0243   2.0285   2.1728   2.3879   2.6005   2.6619   2.9074   2.9736
     3.5961   3.8989   4.0151   4.1209   5.1168   5.3363   5.5500   5.5910
     5.6360   6.2054   6.2856   6.7086   6.7097   7.1018   7.5203   7.5374
     7.9734   8.0067   8.0855   8.3233   8.4216   8.6657

     the Fermi energy is     3.2488 ev

!    total energy              =   -2857.22240844 Ry
     estimated scf accuracy    <       0.00000057 Ry
     smearing contrib. (-TS)   =      -0.00053029 Ry
     internal energy E=F+TS    =   -2857.22187814 Ry

     The total energy is F=E-TS. E is the sum of the following terms:
     one-electron contribution =   -8553.07420967 Ry
     hartree contribution      =    4380.99709074 Ry
     xc contribution           =    -697.05332619 Ry
     ewald contribution        =    2011.90856697 Ry

     convergence has been achieved in   6 iterations

     Forces acting on atoms (cartesian axes, Ry/au):

     atom    1 type  1   force =     0.00001043    0.00000073   -0.00880870
     atom    2 type  1   force =     0.00000298   -0.00000067   -0.01290386
     atom    3 type  1   force =    -0.00000756    0.00000684   -0.00347295
     atom    4 type  1   force =    -0.00000603    0.00000565    0.00879449
     atom    5 type  1   force =     0.00000637   -0.00000815   -0.00880635
     atom    6 type  1   force =     0.00001036   -0.00000443    0.00378633
     atom    7 type  1   force =     0.00000186   -0.00000172    0.01257650
     atom    8 type  1   force =     0.00000796   -0.00000258    0.00883485
     atom    9 type  1   force =    -0.00001052    0.00000442   -0.00880723
     atom   10 type  1   force =    -0.00000317    0.00000254   -0.01290360
     atom   11 type  1   force =     0.00000748   -0.00000707   -0.00347662
     atom   12 type  1   force =     0.00000650   -0.00000668    0.00879233
     atom   13 type  1   force =    -0.00000474    0.00000131   -0.00880575
     atom   14 type  1   force =    -0.00001018   -0.00000031    0.00378784
     atom   15 type  1   force =    -0.00000348    0.00000145    0.01257659
     atom   16 type  1   force =    -0.00000826    0.00000864    0.00883612

     Total force =     0.036376     Total SCF correction =     0.002851
     Energy error            =      1.9E-03 Ry
     Gradient error          =      1.3E-02 Ry/Bohr

     number of scf cycles    =   2
     number of bfgs steps    =   1

     energy             old  =   -2857.2205104567 Ry
     energy             new  =   -2857.2224084354 Ry

     CASE: energy            _new < energy            _old

     new trust radius        =       0.0151006028 bohr
     new conv_thr            =       0.0000001290 Ry


ATOMIC_POSITIONS (angstrom)
Ge            1.0031967463        0.5791879068        7.4462476948
Ge            1.0031864197        0.5791857491        4.9848256335
Ge            3.0095397014        1.7375694335       10.7272392525
Ge            3.0095388865        1.7375687873        8.2892875650
Ge            5.0159215384        2.8959250923       13.9971874060
Ge            5.0159272941        2.8959291127       11.5592370293
Ge            1.0031836612        0.5791870602       17.3015024209
Ge            1.0031879612        0.5791867644       14.8401492374
Ge            5.0158971062        0.5791929212        7.4462499743
Ge            5.0159051726        0.5791908479        4.9848270529
Ge            7.0222844026        1.7375550445       10.7272385614
Ge            7.0222831963        1.7375543611        8.2892880819
Ge            9.0286322136        2.8959401562       13.9971871576
Ge            9.0286240218        2.8959373017       11.5592385807
Ge            5.0159102965        0.5791886254       17.3015016250
Ge            5.0159064973        0.5791981651       14.8401538384



     Writing output data file ./out/ge.save/
     NEW-OLD atomic charge density approx. for the potential

     total cpu time spent up to now is       45.1 secs

     Self-consistent Calculation

     iteration #  1     ecut=    60.00 Ry     beta= 0.40
     Davidson diagonalization with overlap
     ethr =  1.00E-06,  avg # of iterations =  4.0

     Threshold (ethr) on eigenvalues was too large:
     Diagonalizing with lowered threshold

     Davidson diagonalization with overlap
     ethr =  9.08E-08,  avg # of iterations =  3.5

     total cpu time spent up to now is       50.6 secs

     total energy              =   -2857.22373789 Ry
     estimated scf accuracy    <       0.00019362 Ry

     iteration #  2     ecut=    60.00 Ry     beta= 0.40
     Davidson diagonalization with overlap
     ethr =  8.64E-08,  avg # of iterations =  6.2

     total cpu time spent up to now is       53.1 secs

     total energy              =   -2857.22359936 Ry
     estimated scf accuracy    <       0.00341736 Ry

     iteration #  3     ecut=    60.00 Ry     beta= 0.40
     Davidson diagonalization with overlap
     ethr =  8.64E-08,  avg # of iterations =  2.3

     total cpu time spent up to now is       55.0 secs

     total energy              =   -2857.22380560 Ry
     estimated scf accuracy    <       0.00015819 Ry

     iteration #  4     ecut=    60.00 Ry     beta= 0.40
     Davidson diagonalization with overlap
     ethr =  7.06E-08,  avg # of iterations =  1.2

     total cpu time spent up to now is       56.7 secs

     total energy              =   -2857.22381842 Ry
     estimated scf accuracy    <       0.00009308 Ry

     iteration #  5     ecut=    60.00 Ry     beta= 0.40
     Davidson diagonalization with overlap
     ethr =  4.16E-08,  avg # of iterations =  2.0

     total cpu time spent up to now is       58.5 secs

     total energy              =   -2857.22382634 Ry
     estimated scf accuracy    <       0.00000491 Ry

     iteration #  6     ecut=    60.00 Ry     beta= 0.40
     Davidson diagonalization with overlap
     ethr =  2.19E-09,  avg # of iterations =  2.0

     total cpu time spent up to now is       60.3 secs

     total energy              =   -2857.22382702 Ry
     estimated scf accuracy    <       0.00000039 Ry

     iteration #  7     ecut=    60.00 Ry     beta= 0.40
     Davidson diagonalization with overlap
     ethr =  1.75E-10,  avg # of iterations =  3.3

     total cpu time spent up to now is       62.4 secs

     End of self-consistent calculation

          k = 0.0000 0.0000 0.0000 ( 32973 PWs)   bands (ev):

   -21.4236 -21.4233 -21.4233 -21.4229 -21.4219 -21.4219 -21.4190 -21.4185
   -21.2931 -21.2931 -21.2928 -21.2916 -21.2896 -21.2885 -21.2885 -21.2879
   -21.2873 -21.2858 -21.2849 -21.2842 -21.2769 -21.2703 -21.2655 -21.2651
   -21.2651 -21.2378 -21.2307 -21.2015 -21.2015 -21.1971 -21.1734 -21.1641
   -21.1509 -21.1509 -21.1476 -21.1413 -21.1390 -21.1390 -21.1272 -21.1150
   -21.1040 -21.0946 -21.0946 -21.0940 -21.0930 -21.0930 -21.0682 -21.0661
   -21.0572 -21.0415 -21.0370 -21.0101 -21.0101 -20.9943 -20.9877 -20.9774
   -20.9768 -20.9768 -20.9699 -20.9540 -20.8525 -20.8519 -20.8364 -20.8360
   -20.8306 -20.8306 -20.8303 -20.8303 -20.8234 -20.8193 -20.8107 -20.8103
   -20.7893 -20.7893 -20.7883 -20.7870 -20.7868 -20.7868 -20.7849 -20.7826
    -8.7759  -8.1779  -7.4402  -6.7990  -6.4037  -5.8559  -5.1391  -5.0392
    -4.7567  -4.2479  -3.7424  -3.0754  -2.9977  -2.5546  -0.6718   0.2148
     0.4845   0.8915   1.2696   1.4467   1.8071   2.0333   2.0598   2.3469
     2.4973   2.4973   2.7707   2.9597   2.9597   3.0673   3.4546   3.4546
     4.0531   4.3781   4.4668   4.7105   4.9559   5.1508   5.1596   5.2316
     5.6856   5.8054   5.8054   6.0159   6.0159   6.3486   7.0095   7.0582
     7.0582   7.2906   7.5418   7.6280   7.6364   7.6592

          k = 0.0000 0.5774 0.0000 ( 32917 PWs)   bands (ev):

   -21.4232 -21.4227 -21.4211 -21.4206 -21.4200 -21.4184 -21.4175 -21.4165
   -21.2933 -21.2927 -21.2920 -21.2919 -21.2914 -21.2905 -21.2902 -21.2894
   -21.2882 -21.2852 -21.2845 -21.2841 -21.2840 -21.2774 -21.2725 -21.2721
   -21.2631 -21.2488 -21.2113 -21.1841 -21.1786 -21.1750 -21.1716 -21.1678
   -21.1583 -21.1506 -21.1450 -21.1431 -21.1384 -21.1304 -21.1206 -21.1174
   -21.0998 -21.0959 -21.0922 -21.0863 -21.0755 -21.0715 -21.0702 -21.0584
   -21.0576 -21.0529 -21.0473 -21.0372 -21.0257 -21.0200 -20.9787 -20.9780
   -20.9676 -20.9625 -20.9590 -20.9429 -20.8664 -20.8653 -20.8520 -20.8516
   -20.8349 -20.8336 -20.8332 -20.8328 -20.8100 -20.8099 -20.8087 -20.8081
   -20.7868 -20.7865 -20.7859 -20.7858 -20.7849 -20.7839 -20.7764 -20.7743
    -8.1231  -7.5395  -6.9487  -6.8076  -6.4451  -5.8007  -5.0369  -4.7679
    -4.4037  -4.1898  -3.4981  -2.8771  -2.7899  -2.6693  -1.5866  -0.7765
    -0.0817   0.0007   0.0013   0.1313   0.4734   0.9739   1.2474   1.5134
     2.0223   2.0542   2.1683   2.3865   2.6285   2.6505   2.9003   2.9688
     3.5955   3.8963   4.0070   4.1156   5.1153   5.3525   5.5459   5.6100
     5.6335   6.1946   6.2768   6.7001   6.7071   7.1001   7.5204   7.5207
     7.9778   7.9916   8.1028   8.3268   8.4236   8.6802

          k = 0.0000-1.1547 0.0000 ( 32908 PWs)   bands (ev):

   -21.4236 -21.4236 -21.4229 -21.4229 -21.4190 -21.4190 -21.4185 -21.4185
   -21.2928 -21.2928 -21.2916 -21.2916 -21.2896 -21.2896 -21.2879 -21.2879
   -21.2858 -21.2858 -21.2849 -21.2849 -21.2769 -21.2769 -21.2703 -21.2703
   -21.2655 -21.2655 -21.1971 -21.1971 -21.1734 -21.1734 -21.1641 -21.1641
   -21.1476 -21.1476 -21.1413 -21.1413 -21.1272 -21.1272 -21.1150 -21.1150
   -21.1040 -21.1040 -21.0940 -21.0940 -21.0682 -21.0682 -21.0661 -21.0661
   -21.0572 -21.0572 -21.0415 -21.0415 -21.0370 -21.0370 -20.9774 -20.9774
   -20.9699 -20.9699 -20.9540 -20.9540 -20.8526 -20.8525 -20.8519 -20.8519
   -20.8364 -20.8364 -20.8360 -20.8360 -20.8107 -20.8107 -20.8103 -20.8103
   -20.7883 -20.7883 -20.7870 -20.7870 -20.7849 -20.7849 -20.7826 -20.7825
    -6.7990  -6.7990  -6.4037  -6.4037  -5.8559  -5.8559  -5.1391  -5.1391
    -4.2479  -4.2479  -3.7424  -3.7424  -3.0754  -3.0754  -2.9977  -2.9977
     0.2148   0.2148   0.4845   0.4845   0.8915   0.8915   1.4467   1.4467
     1.8071   1.8071   2.0333   2.0333   2.0598   2.0598   2.3469   2.3469
     2.7707   2.7707   4.7105   4.7105   4.9559   4.9559   5.1508   5.1508
     5.1596   5.1596   5.2316   5.2316   5.6856   5.6856   7.2906   7.2906
     7.5418   7.5418   7.9795   7.9795   8.3206   8.3206

          k =-0.5000 0.2887 0.0000 ( 32960 PWs)   bands (ev):

   -21.4232 -21.4232 -21.4227 -21.4227 -21.4200 -21.4200 -21.4184 -21.4184
   -21.2927 -21.2927 -21.2919 -21.2919 -21.2914 -21.2914 -21.2902 -21.2902
   -21.2845 -21.2845 -21.2840 -21.2840 -21.2774 -21.2774 -21.2721 -21.2721
   -21.2488 -21.2488 -21.2113 -21.2113 -21.1841 -21.1841 -21.1750 -21.1750
   -21.1583 -21.1583 -21.1450 -21.1450 -21.1384 -21.1384 -21.1304 -21.1304
   -21.0959 -21.0959 -21.0922 -21.0922 -21.0755 -21.0755 -21.0702 -21.0702
   -21.0473 -21.0473 -21.0257 -21.0257 -21.0200 -21.0200 -20.9787 -20.9787
   -20.9625 -20.9625 -20.9590 -20.9590 -20.8520 -20.8520 -20.8516 -20.8516
   -20.8349 -20.8349 -20.8336 -20.8335 -20.8099 -20.8099 -20.8087 -20.8087
   -20.7859 -20.7859 -20.7858 -20.7858 -20.7849 -20.7849 -20.7839 -20.7839
    -8.1231  -8.1231  -7.5395  -7.5395  -6.8076  -6.8075  -4.7679  -4.7679
    -4.4037  -4.4037  -2.7899  -2.7899  -1.5866  -1.5866  -0.7765  -0.7765
     0.0007   0.0007   0.9739   0.9739   1.5133   1.5134   2.0223   2.0223
     2.0542   2.0543   2.6285   2.6285   2.6505   2.6505   3.5955   3.5955
     4.0070   4.0070   5.1153   5.1153   5.3525   5.3525   5.5459   5.5459
     5.6100   5.6100   5.6335   5.6335   6.7071   6.7071   7.1001   7.1001
     7.5204   7.5205   7.9916   7.9916   8.4236   8.4236

          k =-0.5000-0.8660 0.0000 ( 32874 PWs)   bands (ev):

   -21.4211 -21.4211 -21.4206 -21.4206 -21.4175 -21.4175 -21.4165 -21.4165
   -21.2933 -21.2933 -21.2920 -21.2920 -21.2905 -21.2905 -21.2894 -21.2894
   -21.2882 -21.2882 -21.2852 -21.2852 -21.2841 -21.2841 -21.2725 -21.2725
   -21.2631 -21.2631 -21.1786 -21.1786 -21.1716 -21.1716 -21.1678 -21.1678
   -21.1506 -21.1506 -21.1431 -21.1431 -21.1206 -21.1206 -21.1174 -21.1174
   -21.0998 -21.0998 -21.0863 -21.0863 -21.0715 -21.0715 -21.0584 -21.0584
   -21.0576 -21.0576 -21.0529 -21.0529 -21.0372 -21.0372 -20.9780 -20.9780
   -20.9676 -20.9675 -20.9429 -20.9429 -20.8664 -20.8664 -20.8653 -20.8653
   -20.8332 -20.8332 -20.8328 -20.8328 -20.8100 -20.8100 -20.8081 -20.8081
   -20.7868 -20.7868 -20.7865 -20.7865 -20.7764 -20.7764 -20.7743 -20.7743
    -6.9487  -6.9487  -6.4451  -6.4451  -5.8007  -5.8007  -5.0369  -5.0369
    -4.1898  -4.1898  -3.4981  -3.4981  -2.8771  -2.8771  -2.6693  -2.6693
    -0.0817  -0.0817   0.0013   0.0013   0.1313   0.1313   0.4734   0.4734
     1.2474   1.2474   2.1683   2.1683   2.3865   2.3865   2.9003   2.9003
     2.9688   2.9688   3.8963   3.8963   4.1156   4.1156   6.1946   6.1946
     6.2768   6.2768   6.7001   6.7001   7.5207   7.5207   7.9778   7.9778
     8.1029   8.1029   8.3268   8.3268   8.6791   8.6792

          k =-0.5000-0.2887 0.0000 ( 32917 PWs)   bands (ev):

   -21.4232 -21.4227 -21.4211 -21.4206 -21.4200 -21.4184 -21.4175 -21.4165
   -21.2933 -21.2927 -21.2920 -21.2919 -21.2914 -21.2905 -21.2902 -21.2894
   -21.2882 -21.2852 -21.2845 -21.2841 -21.2840 -21.2774 -21.2725 -21.2721
   -21.2631 -21.2488 -21.2113 -21.1841 -21.1786 -21.1750 -21.1716 -21.1678
   -21.1583 -21.1506 -21.1450 -21.1431 -21.1384 -21.1304 -21.1206 -21.1174
   -21.0998 -21.0959 -21.0922 -21.0863 -21.0755 -21.0715 -21.0702 -21.0584
   -21.0576 -21.0529 -21.0473 -21.0372 -21.0257 -21.0200 -20.9787 -20.9780
   -20.9676 -20.9625 -20.9590 -20.9429 -20.8664 -20.8653 -20.8520 -20.8516
   -20.8349 -20.8336 -20.8332 -20.8328 -20.8100 -20.8099 -20.8087 -20.8081
   -20.7868 -20.7865 -20.7859 -20.7858 -20.7849 -20.7839 -20.7764 -20.7743
    -8.1231  -7.5395  -6.9487  -6.8076  -6.4451  -5.8007  -5.0369  -4.7679
    -4.4037  -4.1898  -3.4981  -2.8771  -2.7899  -2.6693  -1.5866  -0.7765
    -0.0817   0.0007   0.0013   0.1313   0.4734   0.9739   1.2474   1.5134
     2.0223   2.0542   2.1683   2.3865   2.6285   2.6505   2.9003   2.9688
     3.5955   3.8963   4.0070   4.1156   5.1153   5.3525   5.5459   5.6100
     5.6335   6.1946   6.2768   6.7001   6.7071   7.1001   7.5204   7.5207
     7.9778   7.9916   8.1028   8.3269   8.4236   8.6803

     the Fermi energy is     3.2540 ev

!    total energy              =   -2857.22382703 Ry
     estimated scf accuracy    <       0.00000006 Ry
     smearing contrib. (-TS)   =      -0.00034583 Ry
     internal energy E=F+TS    =   -2857.22348120 Ry

     The total energy is F=E-TS. E is the sum of the following terms:
     one-electron contribution =   -8535.64551536 Ry
     hartree contribution      =    4372.32586275 Ry
     xc contribution           =    -697.04346065 Ry
     ewald contribution        =    2003.13963206 Ry

     convergence has been achieved in   7 iterations

     Forces acting on atoms (cartesian axes, Ry/au):

     atom    1 type  1   force =     0.00000789    0.00000091   -0.00762352
     atom    2 type  1   force =     0.00000336   -0.00000138   -0.01183654
     atom    3 type  1   force =    -0.00000509    0.00000502   -0.00074423
     atom    4 type  1   force =    -0.00000460    0.00000519    0.00480505
     atom    5 type  1   force =     0.00000431   -0.00000487   -0.00478674
     atom    6 type  1   force =     0.00000846   -0.00000315    0.00071666
     atom    7 type  1   force =     0.00000303   -0.00000134    0.01186880
     atom    8 type  1   force =     0.00000604   -0.00000281    0.00759765
     atom    9 type  1   force =    -0.00000810    0.00000342   -0.00761948
     atom   10 type  1   force =    -0.00000340    0.00000208   -0.01183637
     atom   11 type  1   force =     0.00000507   -0.00000568   -0.00074935
     atom   12 type  1   force =     0.00000373   -0.00000516    0.00479954
     atom   13 type  1   force =    -0.00000436    0.00000188   -0.00478343
     atom   14 type  1   force =    -0.00000820   -0.00000132    0.00072026
     atom   15 type  1   force =    -0.00000283    0.00000184    0.01187092
     atom   16 type  1   force =    -0.00000531    0.00000535    0.00760077

     Total force =     0.029795     Total SCF correction =     0.001674
     Energy error            =      1.4E-03 Ry
     Gradient error          =      1.2E-02 Ry/Bohr

     number of scf cycles    =   3
     number of bfgs steps    =   2

     energy             old  =   -2857.2224084354 Ry
     energy             new  =   -2857.2238270280 Ry

     CASE: energy            _new < energy            _old

     new trust radius        =       0.0226509042 bohr
     new conv_thr            =       0.0000001187 Ry


ATOMIC_POSITIONS (angstrom)
Ge            1.0032055891        0.5791886701        7.4382680246
Ge            1.0031898553        0.5791843147        4.9728715993
Ge            3.0095344453        1.7375745706       10.7253186578
Ge            3.0095337662        1.7375740153        8.2955582470
Ge            5.0159267297        2.8959189539       13.9909461582
Ge            5.0159369398        2.8959250239       11.5611224086
Ge            1.0031857059        0.5791860142       17.3134873264
Ge            1.0031930080        0.5791845948       14.8481004500
Ge            5.0158883162        0.5791965982        7.4382738955
Ge            5.0159015593        0.5791931333        4.9728734932
Ge            7.0222900345        1.7375494039       10.7253141375
Ge            7.0222876662        1.7375489293        8.2955548074
Ge            9.0286272335        2.8959422927       13.9909483642
Ge            9.0286145390        2.8959363771       11.5611270216
Ge            5.0159079513        0.5791901692       17.3134879669
Ge            5.0159017762        0.5792042683       14.8481085532



     Writing output data file ./out/ge.save/
     NEW-OLD atomic charge density approx. for the potential

     total cpu time spent up to now is       62.9 secs

     Self-consistent Calculation

     iteration #  1     ecut=    60.00 Ry     beta= 0.40
     Davidson diagonalization with overlap
     ethr =  1.00E-06,  avg # of iterations =  5.0

     total cpu time spent up to now is       66.8 secs

     total energy              =   -2857.22522426 Ry
     estimated scf accuracy    <       0.00028496 Ry

     iteration #  2     ecut=    60.00 Ry     beta= 0.40
     Davidson diagonalization with overlap
     ethr =  1.27E-07,  avg # of iterations =  4.8

     total cpu time spent up to now is       69.3 secs

     total energy              =   -2857.22514353 Ry
     estimated scf accuracy    <       0.00231048 Ry

     iteration #  3     ecut=    60.00 Ry     beta= 0.40
     Davidson diagonalization with overlap
     ethr =  1.27E-07,  avg # of iterations =  2.5

     total cpu time spent up to now is       71.2 secs

     total energy              =   -2857.22533914 Ry
     estimated scf accuracy    <       0.00007840 Ry

     iteration #  4     ecut=    60.00 Ry     beta= 0.40
     Davidson diagonalization with overlap
     ethr =  3.50E-08,  avg # of iterations =  2.0

     total cpu time spent up to now is       73.0 secs

     total energy              =   -2857.22534695 Ry
     estimated scf accuracy    <       0.00001552 Ry

     iteration #  5     ecut=    60.00 Ry     beta= 0.40
     Davidson diagonalization with overlap
     ethr =  6.93E-09,  avg # of iterations =  2.2

     total cpu time spent up to now is       74.9 secs

     total energy              =   -2857.22534212 Ry
     estimated scf accuracy    <       0.00014974 Ry

     iteration #  6     ecut=    60.00 Ry     beta= 0.40
     Davidson diagonalization with overlap
     ethr =  6.93E-09,  avg # of iterations =  2.0

     total cpu time spent up to now is       76.7 secs

     total energy              =   -2857.22535098 Ry
     estimated scf accuracy    <       0.00000160 Ry

     iteration #  7     ecut=    60.00 Ry     beta= 0.40
     Davidson diagonalization with overlap
     ethr =  7.14E-10,  avg # of iterations =  3.0

     total cpu time spent up to now is       78.7 secs

     total energy              =   -2857.22535110 Ry
     estimated scf accuracy    <       0.00000068 Ry

     iteration #  8     ecut=    60.00 Ry     beta= 0.40
     Davidson diagonalization with overlap
     ethr =  3.04E-10,  avg # of iterations =  2.0

     total cpu time spent up to now is       80.5 secs

     End of self-consistent calculation

          k = 0.0000 0.0000 0.0000 ( 32973 PWs)   bands (ev):

   -21.4313 -21.4309 -21.4309 -21.4307 -21.4296 -21.4296 -21.4268 -21.4262
   -21.3003 -21.3003 -21.2997 -21.2992 -21.2967 -21.2963 -21.2963 -21.2960
   -21.2932 -21.2910 -21.2900 -21.2897 -21.2685 -21.2637 -21.2585 -21.2573
   -21.2573 -21.2306 -21.2241 -21.1926 -21.1926 -21.1884 -21.1590 -21.1457
   -21.1355 -21.1332 -21.1332 -21.1294 -21.1218 -21.1218 -21.1133 -21.0960
   -21.0863 -21.0819 -21.0772 -21.0772 -21.0758 -21.0758 -21.0510 -21.0498
   -21.0411 -21.0326 -21.0231 -21.0013 -21.0013 -20.9783 -20.9727 -20.9685
   -20.9685 -20.9650 -20.9582 -20.9461 -20.8366 -20.8358 -20.8207 -20.8206
   -20.8144 -20.8144 -20.8141 -20.8141 -20.8094 -20.8053 -20.7960 -20.7953
   -20.7749 -20.7739 -20.7734 -20.7734 -20.7713 -20.7713 -20.7696 -20.7671
    -8.7611  -8.1439  -7.4109  -6.7913  -6.3797  -5.8292  -5.1299  -5.0434
    -4.7575  -4.2246  -3.7185  -3.0705  -2.9850  -2.5790  -0.6923   0.2161
     0.4780   0.9125   1.2589   1.4884   1.8016   2.0567   2.0682   2.3416
     2.5155   2.5155   2.7578   2.9990   2.9991   3.0407   3.4894   3.4894
     4.0875   4.3865   4.5171   4.7368   4.9534   5.1553   5.1813   5.2282
     5.6774   5.8062   5.8062   6.0191   6.0191   6.3594   6.9863   7.0588
     7.0588   7.3185   7.5193   7.6477   7.6540   7.6735

          k = 0.0000 0.5774 0.0000 ( 32917 PWs)   bands (ev):

   -21.4310 -21.4304 -21.4289 -21.4283 -21.4276 -21.4262 -21.4252 -21.4242
   -21.3005 -21.3000 -21.2994 -21.2991 -21.2989 -21.2984 -21.2978 -21.2965
   -21.2907 -21.2900 -21.2898 -21.2893 -21.2789 -21.2703 -21.2660 -21.2640
   -21.2563 -21.2415 -21.2030 -21.1735 -21.1660 -21.1646 -21.1542 -21.1529
   -21.1400 -21.1394 -21.1295 -21.1280 -21.1219 -21.1138 -21.1085 -21.1052
   -21.0862 -21.0807 -21.0773 -21.0704 -21.0591 -21.0567 -21.0534 -21.0415
   -21.0410 -21.0376 -21.0334 -21.0241 -21.0146 -21.0078 -20.9652 -20.9650
   -20.9554 -20.9547 -20.9482 -20.9355 -20.8498 -20.8487 -20.8358 -20.8356
   -20.8190 -20.8176 -20.8175 -20.8174 -20.7954 -20.7950 -20.7944 -20.7934
   -20.7734 -20.7731 -20.7714 -20.7703 -20.7702 -20.7685 -20.7615 -20.7595
    -8.1095  -7.5069  -6.9389  -6.7792  -6.4187  -5.7758  -5.0314  -4.7717
    -4.4021  -4.1693  -3.4887  -2.8657  -2.8032  -2.6493  -1.5783  -0.7538
    -0.0589   0.0180   0.0227   0.1498   0.4923   0.9916   1.2531   1.5335
     2.0158   2.0951   2.1643   2.3854   2.6389   2.6630   2.8922   2.9626
     3.5952   3.8936   3.9977   4.1093   5.1121   5.3738   5.5420   5.6309
     5.6351   6.1813   6.2651   6.6882   6.7019   7.0950   7.4976   7.5205
     7.9774   7.9802   8.1252   8.3301   8.4244   8.6981

          k = 0.0000-1.1547 0.0000 ( 32908 PWs)   bands (ev):

   -21.4313 -21.4313 -21.4307 -21.4307 -21.4268 -21.4268 -21.4262 -21.4262
   -21.2997 -21.2997 -21.2992 -21.2992 -21.2967 -21.2967 -21.2960 -21.2960
   -21.2910 -21.2910 -21.2900 -21.2900 -21.2685 -21.2685 -21.2637 -21.2637
   -21.2585 -21.2585 -21.1884 -21.1884 -21.1590 -21.1590 -21.1457 -21.1456
   -21.1355 -21.1355 -21.1294 -21.1294 -21.1133 -21.1133 -21.0960 -21.0960
   -21.0863 -21.0863 -21.0819 -21.0819 -21.0510 -21.0510 -21.0498 -21.0498
   -21.0411 -21.0411 -21.0326 -21.0326 -21.0231 -21.0231 -20.9650 -20.9650
   -20.9582 -20.9582 -20.9461 -20.9461 -20.8366 -20.8366 -20.8358 -20.8358
   -20.8207 -20.8207 -20.8206 -20.8206 -20.7960 -20.7960 -20.7953 -20.7953
   -20.7749 -20.7749 -20.7739 -20.7739 -20.7696 -20.7696 -20.7671 -20.7671
    -6.7913  -6.7913  -6.3797  -6.3797  -5.8292  -5.8292  -5.1299  -5.1299
    -4.2246  -4.2246  -3.7185  -3.7184  -3.0705  -3.0705  -2.9850  -2.9850
     0.2161   0.2161   0.4780   0.4780   0.9125   0.9125   1.4884   1.4884
     1.8016   1.8016   2.0567   2.0567   2.0682   2.0682   2.3416   2.3416
     2.7578   2.7578   4.7368   4.7368   4.9534   4.9534   5.1553   5.1553
     5.1813   5.1813   5.2282   5.2282   5.6774   5.6774   7.3185   7.3185
     7.5193   7.5193   7.9618   7.9618   8.2970   8.2970

          k =-0.5000 0.2887 0.0000 ( 32960 PWs)   bands (ev):

   -21.4310 -21.4310 -21.4304 -21.4304 -21.4276 -21.4276 -21.4262 -21.4262
   -21.3000 -21.3000 -21.2994 -21.2994 -21.2989 -21.2989 -21.2978 -21.2978
   -21.2900 -21.2900 -21.2893 -21.2893 -21.2703 -21.2703 -21.2640 -21.2640
   -21.2415 -21.2415 -21.2030 -21.2030 -21.1735 -21.1735 -21.1646 -21.1646
   -21.1400 -21.1400 -21.1280 -21.1280 -21.1219 -21.1219 -21.1138 -21.1138
   -21.0807 -21.0806 -21.0773 -21.0773 -21.0591 -21.0591 -21.0534 -21.0534
   -21.0334 -21.0334 -21.0146 -21.0146 -21.0078 -21.0078 -20.9650 -20.9650
   -20.9547 -20.9547 -20.9482 -20.9482 -20.8358 -20.8358 -20.8356 -20.8356
   -20.8190 -20.8190 -20.8175 -20.8175 -20.7954 -20.7954 -20.7944 -20.7944
   -20.7714 -20.7714 -20.7703 -20.7703 -20.7702 -20.7702 -20.7685 -20.7685
    -8.1095  -8.1095  -7.5069  -7.5069  -6.7792  -6.7792  -4.7717  -4.7717
    -4.4021  -4.4020  -2.8032  -2.8032  -1.5783  -1.5783  -0.7538  -0.7538
     0.0180   0.0180   0.9916   0.9916   1.5335   1.5336   2.0158   2.0158
     2.0950   2.0951   2.6389   2.6389   2.6630   2.6630   3.5952   3.5953
     3.9977   3.9977   5.1121   5.1122   5.3738   5.3739   5.5420   5.5420
     5.6309   5.6309   5.6350   5.6351   6.7018   6.7019   7.0950   7.0950
     7.5204   7.5205   7.9774   7.9774   8.4244   8.4244

          k =-0.5000-0.8660 0.0000 ( 32874 PWs)   bands (ev):

   -21.4289 -21.4289 -21.4283 -21.4283 -21.4252 -21.4252 -21.4242 -21.4242
   -21.3005 -21.3005 -21.2991 -21.2991 -21.2984 -21.2984 -21.2965 -21.2965
   -21.2907 -21.2906 -21.2898 -21.2898 -21.2789 -21.2789 -21.2660 -21.2660
   -21.2563 -21.2563 -21.1660 -21.1660 -21.1542 -21.1542 -21.1529 -21.1529
   -21.1394 -21.1394 -21.1295 -21.1295 -21.1085 -21.1085 -21.1052 -21.1052
   -21.0862 -21.0862 -21.0704 -21.0704 -21.0567 -21.0567 -21.0415 -21.0415
   -21.0410 -21.0410 -21.0376 -21.0376 -21.0241 -21.0241 -20.9652 -20.9652
   -20.9554 -20.9554 -20.9355 -20.9355 -20.8498 -20.8498 -20.8487 -20.8487
   -20.8176 -20.8176 -20.8174 -20.8174 -20.7950 -20.7950 -20.7934 -20.7934
   -20.7734 -20.7734 -20.7731 -20.7731 -20.7615 -20.7615 -20.7595 -20.7595
    -6.9389  -6.9389  -6.4187  -6.4187  -5.7758  -5.7758  -5.0314  -5.0314
    -4.1693  -4.1693  -3.4887  -3.4887  -2.8658  -2.8657  -2.6493  -2.6493
    -0.0589  -0.0589   0.0227   0.0227   0.1498   0.1498   0.4923   0.4923
     1.2531   1.2531   2.1643   2.1643   2.3854   2.3855   2.8922   2.8922
     2.9626   2.9626   3.8936   3.8936   4.1093   4.1093   6.1813   6.1813
     6.2651   6.2651   6.6883   6.6883   7.4976   7.4976   7.9802   7.9802
     8.1252   8.1252   8.3299   8.3299   8.6969   8.6970

          k =-0.5000-0.2887 0.0000 ( 32917 PWs)   bands (ev):

   -21.4310 -21.4304 -21.4289 -21.4283 -21.4276 -21.4262 -21.4252 -21.4242
   -21.3005 -21.3000 -21.2994 -21.2991 -21.2989 -21.2984 -21.2978 -21.2965
   -21.2907 -21.2900 -21.2898 -21.2893 -21.2789 -21.2703 -21.2660 -21.2640
   -21.2563 -21.2415 -21.2030 -21.1735 -21.1660 -21.1646 -21.1542 -21.1529
   -21.1400 -21.1394 -21.1295 -21.1280 -21.1219 -21.1138 -21.1085 -21.1052
   -21.0862 -21.0807 -21.0773 -21.0704 -21.0591 -21.0567 -21.0534 -21.0415
   -21.0410 -21.0376 -21.0334 -21.0241 -21.0146 -21.0078 -20.9652 -20.9650
   -20.9554 -20.9547 -20.9482 -20.9355 -20.8498 -20.8487 -20.8358 -20.8356
   -20.8190 -20.8176 -20.8175 -20.8174 -20.7954 -20.7950 -20.7944 -20.7934
   -20.7734 -20.7731 -20.7714 -20.7703 -20.7702 -20.7685 -20.7615 -20.7595
    -8.1095  -7.5069  -6.9389  -6.7792  -6.4187  -5.7758  -5.0314  -4.7717
    -4.4021  -4.1693  -3.4887  -2.8657  -2.8032  -2.6493  -1.5783  -0.7538
    -0.0589   0.0180   0.0227   0.1498   0.4923   0.9916   1.2531   1.5336
     2.0158   2.0951   2.1643   2.3854   2.6389   2.6630   2.8922   2.9626
     3.5952   3.8936   3.9977   4.1093   5.1122   5.3738   5.5420   5.6309
     5.6351   6.1813   6.2651   6.6883   6.7018   7.0950   7.4976   7.5205
     7.9774   7.9802   8.1252   8.3299   8.4244   8.6979

     the Fermi energy is     3.2645 ev

!    total energy              =   -2857.22535119 Ry
     estimated scf accuracy    <       0.00000006 Ry
     smearing contrib. (-TS)   =      -0.00021477 Ry
     internal energy E=F+TS    =   -2857.22513642 Ry

     The total energy is F=E-TS. E is the sum of the following terms:
     one-electron contribution =   -8507.57964718 Ry
     hartree contribution      =    4358.36151692 Ry
     xc contribution           =    -697.02875185 Ry
     ewald contribution        =    1989.02174569 Ry

     convergence has been achieved in   8 iterations

     Forces acting on atoms (cartesian axes, Ry/au):

     atom    1 type  1   force =     0.00000543    0.00000088   -0.00626236
     atom    2 type  1   force =     0.00000393   -0.00000139   -0.01028993
     atom    3 type  1   force =    -0.00000342    0.00000353    0.00215160
     atom    4 type  1   force =    -0.00000167    0.00000492   -0.00004530
     atom    5 type  1   force =     0.00000284   -0.00000225    0.00003753
     atom    6 type  1   force =     0.00000512   -0.00000155   -0.00225428
     atom    7 type  1   force =     0.00000337   -0.00000125    0.01027802
     atom    8 type  1   force =     0.00000485   -0.00000273    0.00638073
     atom    9 type  1   force =    -0.00000587    0.00000157   -0.00625815
     atom   10 type  1   force =    -0.00000398    0.00000280   -0.01028882
     atom   11 type  1   force =     0.00000254   -0.00000531    0.00214339
     atom   12 type  1   force =     0.00000229   -0.00000394   -0.00005370
     atom   13 type  1   force =    -0.00000324    0.00000097    0.00004321
     atom   14 type  1   force =    -0.00000495   -0.00000164   -0.00224779
     atom   15 type  1   force =    -0.00000322    0.00000259    0.01028072
     atom   16 type  1   force =    -0.00000401    0.00000279    0.00638515

     Total force =     0.024542     Total SCF correction =     0.001448
     Energy error            =      1.5E-03 Ry
     Gradient error          =      1.0E-02 Ry/Bohr

     number of scf cycles    =   4
     number of bfgs steps    =   3

     energy             old  =   -2857.2238270280 Ry
     energy             new  =   -2857.2253511908 Ry

     CASE: energy            _new < energy            _old

     new trust radius        =       0.0339763563 bohr
     new conv_thr            =       0.0000001029 Ry


ATOMIC_POSITIONS (angstrom)
Ge            1.0032180336        0.5791898195        7.4264647371
Ge            1.0031959229        0.5791819671        4.9549096558
Ge            3.0095273893        1.7375815803       10.7243288407
Ge            3.0095278798        1.7375822155        8.3019569594
Ge            5.0159341262        2.8959108869       13.9845767604
Ge            5.0159500158        2.8959194869       11.5619833243
Ge            1.0031889429        0.5791845244       17.3314642469
Ge            1.0031997233        0.5791814032       14.8599817060
Ge            5.0158758449        0.5792009979        7.4264764107
Ge            5.0158951409        0.5791975074        4.9549132426
Ge            7.0222970959        1.7375406591       10.7243159242
Ge            7.0222938645        1.7375411479        8.3019451649
Ge            9.0286199526        2.8959450480       13.9845847016
Ge            9.0286016150        2.8959347448       11.5619952103
Ge            5.0159040188        0.5791932118       17.3314674797
Ge            5.0158955493        0.5792121288       14.8599967471



     Writing output data file ./out/ge.save/
     NEW-OLD atomic charge density approx. for the potential

     negative rho (up, down):  2.490E-08 0.000E+00

     total cpu time spent up to now is       81.1 secs

     Self-consistent Calculation

     iteration #  1     ecut=    60.00 Ry     beta= 0.40
     Davidson diagonalization with overlap
     ethr =  1.00E-06,  avg # of iterations =  8.7

     total cpu time spent up to now is       86.1 secs

     total energy              =   -2857.22672467 Ry
     estimated scf accuracy    <       0.00051538 Ry

     iteration #  2     ecut=    60.00 Ry     beta= 0.40
     Davidson diagonalization with overlap
     ethr =  2.30E-07,  avg # of iterations =  3.0

     total cpu time spent up to now is       88.3 secs

     total energy              =   -2857.22656798 Ry
     estimated scf accuracy    <       0.00387824 Ry

     iteration #  3     ecut=    60.00 Ry     beta= 0.40
     Davidson diagonalization with overlap
     ethr =  2.30E-07,  avg # of iterations =  2.3

     total cpu time spent up to now is       90.2 secs

     total energy              =   -2857.22690132 Ry
     estimated scf accuracy    <       0.00015153 Ry

     iteration #  4     ecut=    60.00 Ry     beta= 0.40
     Davidson diagonalization with overlap
     ethr =  6.76E-08,  avg # of iterations =  2.0

     total cpu time spent up to now is       92.1 secs

     total energy              =   -2857.22689992 Ry
     estimated scf accuracy    <       0.00016814 Ry

     iteration #  5     ecut=    60.00 Ry     beta= 0.40
     Davidson diagonalization with overlap
     ethr =  6.76E-08,  avg # of iterations =  1.8

     total cpu time spent up to now is       93.9 secs

     total energy              =   -2857.22691415 Ry
     estimated scf accuracy    <       0.00019718 Ry

     iteration #  6     ecut=    60.00 Ry     beta= 0.40
     Davidson diagonalization with overlap
     ethr =  6.76E-08,  avg # of iterations =  1.0

     total cpu time spent up to now is       95.5 secs

     total energy              =   -2857.22692584 Ry
     estimated scf accuracy    <       0.00000186 Ry

     iteration #  7     ecut=    60.00 Ry     beta= 0.40
     Davidson diagonalization with overlap
     ethr =  8.28E-10,  avg # of iterations =  4.2

     total cpu time spent up to now is       97.6 secs

     total energy              =   -2857.22692604 Ry
     estimated scf accuracy    <       0.00000137 Ry

     iteration #  8     ecut=    60.00 Ry     beta= 0.40
     Davidson diagonalization with overlap
     ethr =  6.12E-10,  avg # of iterations =  2.0

     total cpu time spent up to now is       99.5 secs

     total energy              =   -2857.22692622 Ry
     estimated scf accuracy    <       0.00000012 Ry

     iteration #  9     ecut=    60.00 Ry     beta= 0.40
     Davidson diagonalization with overlap
     ethr =  5.56E-11,  avg # of iterations =  2.2

     total cpu time spent up to now is      101.4 secs

     End of self-consistent calculation

          k = 0.0000 0.0000 0.0000 ( 32973 PWs)   bands (ev):

   -21.4414 -21.4408 -21.4408 -21.4406 -21.4399 -21.4399 -21.4369 -21.4361
   -21.3101 -21.3097 -21.3097 -21.3087 -21.3070 -21.3070 -21.3070 -21.3059
   -21.3008 -21.2980 -21.2974 -21.2973 -21.2584 -21.2539 -21.2482 -21.2474
   -21.2474 -21.2197 -21.2134 -21.1814 -21.1814 -21.1772 -21.1419 -21.1210
   -21.1195 -21.1134 -21.1088 -21.1088 -21.0981 -21.0981 -21.0924 -21.0698
   -21.0657 -21.0612 -21.0533 -21.0533 -21.0523 -21.0523 -21.0286 -21.0274
   -21.0197 -21.0190 -21.0029 -20.9889 -20.9889 -20.9577 -20.9576 -20.9576
   -20.9529 -20.9480 -20.9423 -20.9353 -20.8147 -20.8137 -20.7993 -20.7991
   -20.7921 -20.7921 -20.7917 -20.7917 -20.7897 -20.7859 -20.7756 -20.7747
   -20.7560 -20.7556 -20.7515 -20.7515 -20.7501 -20.7501 -20.7485 -20.7459
    -8.7396  -8.0959  -7.3741  -6.7775  -6.3439  -5.7931  -5.1129  -5.0451
    -4.7576  -4.1956  -3.6906  -3.0631  -2.9678  -2.6028  -0.7159   0.2227
     0.4755   0.9397   1.2450   1.5452   1.7961   2.0540   2.1111   2.3349
     2.5395   2.5395   2.7435   3.0110   3.0531   3.0531   3.5330   3.5330
     4.1273   4.3949   4.5829   4.7696   4.9490   5.1510   5.2212   5.2244
     5.6670   5.8100   5.8100   6.0237   6.0237   6.3670   6.9551   7.0603
     7.0603   7.3449   7.4896   7.6729   7.6772   7.6924

          k = 0.0000 0.5774 0.0000 ( 32917 PWs)   bands (ev):

   -21.4409 -21.4406 -21.4389 -21.4384 -21.4375 -21.4364 -21.4352 -21.4344
   -21.3103 -21.3098 -21.3095 -21.3093 -21.3087 -21.3086 -21.3080 -21.3062
   -21.2981 -21.2973 -21.2968 -21.2966 -21.2688 -21.2605 -21.2563 -21.2540
   -21.2461 -21.2308 -21.1914 -21.1606 -21.1526 -21.1514 -21.1352 -21.1304
   -21.1228 -21.1153 -21.1096 -21.1053 -21.0984 -21.0919 -21.0903 -21.0883
   -21.0682 -21.0600 -21.0576 -21.0482 -21.0366 -21.0366 -21.0302 -21.0187
   -21.0183 -21.0154 -21.0142 -21.0047 -20.9985 -20.9918 -20.9479 -20.9466
   -20.9441 -20.9388 -20.9332 -20.9253 -20.8270 -20.8259 -20.8136 -20.8135
   -20.7971 -20.7960 -20.7960 -20.7955 -20.7753 -20.7746 -20.7745 -20.7732
   -20.7546 -20.7544 -20.7512 -20.7501 -20.7487 -20.7472 -20.7408 -20.7389
    -8.0892  -7.4607  -6.9226  -6.7433  -6.3800  -5.7425  -5.0186  -4.7719
    -4.3991  -4.1434  -3.4784  -2.8497  -2.8154  -2.6240  -1.5658  -0.7276
    -0.0313   0.0426   0.0525   0.1758   0.5212   1.0172   1.2654   1.5600
     2.0091   2.1509   2.1613   2.3850   2.6276   2.7055   2.8831   2.9546
     3.5954   3.8909   3.9868   4.1018   5.1062   5.4016   5.5385   5.6280
     5.6680   6.1649   6.2488   6.6726   6.6896   7.0853   7.4658   7.5206
     7.9654   7.9779   8.1537   8.3320   8.4231   8.7180

          k = 0.0000-1.1547 0.0000 ( 32908 PWs)   bands (ev):

   -21.4414 -21.4414 -21.4406 -21.4406 -21.4369 -21.4369 -21.4361 -21.4361
   -21.3101 -21.3101 -21.3087 -21.3087 -21.3070 -21.3070 -21.3059 -21.3059
   -21.2981 -21.2980 -21.2973 -21.2973 -21.2584 -21.2584 -21.2539 -21.2539
   -21.2482 -21.2482 -21.1772 -21.1772 -21.1419 -21.1419 -21.1210 -21.1210
   -21.1195 -21.1195 -21.1134 -21.1134 -21.0924 -21.0924 -21.0698 -21.0698
   -21.0657 -21.0657 -21.0612 -21.0612 -21.0286 -21.0286 -21.0274 -21.0274
   -21.0197 -21.0197 -21.0190 -21.0190 -21.0029 -21.0029 -20.9480 -20.9480
   -20.9423 -20.9422 -20.9353 -20.9353 -20.8147 -20.8147 -20.8137 -20.8137
   -20.7993 -20.7993 -20.7991 -20.7991 -20.7756 -20.7756 -20.7747 -20.7747
   -20.7560 -20.7560 -20.7556 -20.7556 -20.7485 -20.7485 -20.7459 -20.7458
    -6.7775  -6.7775  -6.3439  -6.3439  -5.7931  -5.7931  -5.1129  -5.1129
    -4.1956  -4.1956  -3.6906  -3.6906  -3.0631  -3.0631  -2.9678  -2.9678
     0.2227   0.2227   0.4755   0.4755   0.9397   0.9398   1.5452   1.5452
     1.7961   1.7961   2.0540   2.0540   2.1111   2.1111   2.3349   2.3349
     2.7435   2.7435   4.7696   4.7696   4.9490   4.9490   5.1510   5.1510
     5.2212   5.2212   5.2244   5.2244   5.6670   5.6670   7.3449   7.3449
     7.4896   7.4896   7.9350   7.9350   8.2746   8.2746

          k =-0.5000 0.2887 0.0000 ( 32960 PWs)   bands (ev):

   -21.4409 -21.4409 -21.4406 -21.4406 -21.4375 -21.4375 -21.4364 -21.4364
   -21.3098 -21.3098 -21.3095 -21.3095 -21.3087 -21.3087 -21.3080 -21.3080
   -21.2973 -21.2973 -21.2968 -21.2968 -21.2605 -21.2605 -21.2540 -21.2540
   -21.2308 -21.2308 -21.1914 -21.1914 -21.1606 -21.1606 -21.1514 -21.1513
   -21.1153 -21.1153 -21.1053 -21.1053 -21.0984 -21.0984 -21.0903 -21.0903
   -21.0600 -21.0600 -21.0576 -21.0576 -21.0366 -21.0366 -21.0302 -21.0302
   -21.0142 -21.0142 -20.9985 -20.9985 -20.9918 -20.9917 -20.9466 -20.9466
   -20.9442 -20.9441 -20.9332 -20.9332 -20.8136 -20.8136 -20.8135 -20.8135
   -20.7971 -20.7971 -20.7955 -20.7955 -20.7753 -20.7753 -20.7746 -20.7746
   -20.7512 -20.7512 -20.7501 -20.7501 -20.7487 -20.7487 -20.7472 -20.7472
    -8.0893  -8.0892  -7.4607  -7.4606  -6.7433  -6.7433  -4.7719  -4.7719
    -4.3991  -4.3990  -2.8154  -2.8154  -1.5658  -1.5658  -0.7277  -0.7276
     0.0425   0.0426   1.0172   1.0172   1.5599   1.5600   2.0091   2.0091
     2.1507   2.1509   2.6276   2.6276   2.7055   2.7055   3.5954   3.5954
     3.9868   3.9869   5.1061   5.1063   5.4015   5.4016   5.5385   5.5385
     5.6280   5.6281   5.6679   5.6681   6.6896   6.6896   7.0852   7.0853
     7.5206   7.5206   7.9653   7.9654   8.4231   8.4231

          k =-0.5000-0.8660 0.0000 ( 32874 PWs)   bands (ev):

   -21.4389 -21.4389 -21.4384 -21.4384 -21.4352 -21.4352 -21.4344 -21.4344
   -21.3103 -21.3103 -21.3093 -21.3093 -21.3086 -21.3086 -21.3062 -21.3062
   -21.2981 -21.2981 -21.2966 -21.2966 -21.2688 -21.2688 -21.2563 -21.2563
   -21.2461 -21.2461 -21.1526 -21.1526 -21.1352 -21.1352 -21.1304 -21.1304
   -21.1228 -21.1228 -21.1096 -21.1096 -21.0919 -21.0919 -21.0883 -21.0883
   -21.0682 -21.0682 -21.0482 -21.0482 -21.0366 -21.0366 -21.0187 -21.0187
   -21.0183 -21.0183 -21.0154 -21.0154 -21.0047 -21.0047 -20.9479 -20.9479
   -20.9388 -20.9388 -20.9253 -20.9253 -20.8270 -20.8270 -20.8259 -20.8259
   -20.7960 -20.7960 -20.7960 -20.7960 -20.7745 -20.7745 -20.7732 -20.7732
   -20.7546 -20.7546 -20.7544 -20.7544 -20.7408 -20.7408 -20.7389 -20.7389
    -6.9227  -6.9226  -6.3800  -6.3800  -5.7425  -5.7425  -5.0186  -5.0186
    -4.1434  -4.1434  -3.4784  -3.4783  -2.8498  -2.8497  -2.6240  -2.6240
    -0.0313  -0.0313   0.0525   0.0525   0.1758   0.1758   0.5212   0.5213
     1.2654   1.2654   2.1612   2.1613   2.3850   2.3850   2.8831   2.8831
     2.9546   2.9546   3.8909   3.8909   4.1018   4.1018   6.1649   6.1649
     6.2488   6.2488   6.6726   6.6726   7.4658   7.4658   7.9779   7.9779
     8.1536   8.1537   8.3320   8.3320   8.7180   8.7180

          k =-0.5000-0.2887 0.0000 ( 32917 PWs)   bands (ev):

   -21.4409 -21.4406 -21.4389 -21.4384 -21.4375 -21.4364 -21.4352 -21.4344
   -21.3103 -21.3098 -21.3095 -21.3093 -21.3087 -21.3086 -21.3080 -21.3062
   -21.2981 -21.2973 -21.2968 -21.2966 -21.2688 -21.2605 -21.2563 -21.2540
   -21.2461 -21.2308 -21.1914 -21.1606 -21.1526 -21.1514 -21.1352 -21.1304
   -21.1228 -21.1153 -21.1096 -21.1053 -21.0984 -21.0919 -21.0903 -21.0883
   -21.0682 -21.0600 -21.0576 -21.0482 -21.0366 -21.0366 -21.0302 -21.0187
   -21.0183 -21.0154 -21.0142 -21.0047 -20.9985 -20.9918 -20.9479 -20.9466
   -20.9441 -20.9388 -20.9332 -20.9253 -20.8270 -20.8259 -20.8136 -20.8135
   -20.7971 -20.7960 -20.7960 -20.7955 -20.7753 -20.7746 -20.7745 -20.7732
   -20.7546 -20.7544 -20.7512 -20.7501 -20.7487 -20.7472 -20.7408 -20.7389
    -8.0892  -7.4607  -6.9226  -6.7433  -6.3800  -5.7425  -5.0186  -4.7719
    -4.3991  -4.1434  -3.4784  -2.8498  -2.8154  -2.6240  -1.5658  -0.7276
    -0.0313   0.0426   0.0525   0.1758   0.5213   1.0172   1.2654   1.5600
     2.0091   2.1508   2.1612   2.3850   2.6276   2.7055   2.8831   2.9546
     3.5954   3.8909   3.9868   4.1018   5.1062   5.4015   5.5385   5.6280
     5.6680   6.1649   6.2488   6.6726   6.6896   7.0853   7.4658   7.5206
     7.9653   7.9779   8.1536   8.3320   8.4231   8.7180

     the Fermi energy is     3.2912 ev

!    total energy              =   -2857.22692622 Ry
     estimated scf accuracy    <          9.2E-09 Ry
     smearing contrib. (-TS)   =      -0.00017437 Ry
     internal energy E=F+TS    =   -2857.22675185 Ry

     The total energy is F=E-TS. E is the sum of the following terms:
     one-electron contribution =   -8462.76424098 Ry
     hartree contribution      =    4336.04813357 Ry
     xc contribution           =    -697.00648705 Ry
     ewald contribution        =    1966.49584262 Ry

     convergence has been achieved in   9 iterations

     Forces acting on atoms (cartesian axes, Ry/au):

     atom    1 type  1   force =     0.00000199    0.00000164   -0.00470721
     atom    2 type  1   force =     0.00000508   -0.00000211   -0.00803847
     atom    3 type  1   force =    -0.00000029    0.00000148    0.00485310
     atom    4 type  1   force =     0.00000048    0.00000399   -0.00565962
     atom    5 type  1   force =     0.00000063    0.00000165    0.00558228
     atom    6 type  1   force =     0.00000141    0.00000082   -0.00475683
     atom    7 type  1   force =     0.00000412   -0.00000176    0.00806482
     atom    8 type  1   force =     0.00000321   -0.00000208    0.00465615
     atom    9 type  1   force =    -0.00000259    0.00000007   -0.00470156
     atom   10 type  1   force =    -0.00000475    0.00000323   -0.00803566
     atom   11 type  1   force =     0.00000023   -0.00000539    0.00484138
     atom   12 type  1   force =    -0.00000013   -0.00000247   -0.00567148
     atom   13 type  1   force =    -0.00000149    0.00000072    0.00559095
     atom   14 type  1   force =    -0.00000140   -0.00000202   -0.00474803
     atom   15 type  1   force =    -0.00000385    0.00000307    0.00806894
     atom   16 type  1   force =    -0.00000265   -0.00000086    0.00466124

     Total force =     0.023786     Total SCF correction =     0.000150
     Energy error            =      1.6E-03 Ry
     Gradient error          =      8.1E-03 Ry/Bohr

     number of scf cycles    =   5
     number of bfgs steps    =   4

     energy             old  =   -2857.2253511908 Ry
     energy             new  =   -2857.2269262244 Ry

     CASE: energy            _new < energy            _old

     new trust radius        =       0.0509645344 bohr
     new conv_thr            =       0.0000000807 Ry


ATOMIC_POSITIONS (angstrom)
Ge            1.0032350486        0.5791923991        7.4087746658
Ge            1.0032070090        0.5791773940        4.9280106238
Ge            3.0095191014        1.7375908685       10.7251336496
Ge            3.0095204185        1.7375946046        8.3070243941
Ge            5.0159441871        2.8959013546       13.9794905740
Ge            5.0159678342        2.8959125792       11.5611586432
Ge            1.0031946000        0.5791817169       17.3584280949
Ge            1.0032085108        0.5791771227       14.8776326992
Ge            5.0158587302        0.5792066516        7.4087970883
Ge            5.0158838147        0.5792051672        4.9280188407
Ge            7.0223063318        1.7375264103       10.7251039016
Ge            7.0223016997        1.7375299402        8.3069959906
Ge            9.0286096848        2.8959493426       13.9795106474
Ge            9.0285838435        2.8959318354       11.5611846216
Ge            5.0158971726        0.5791985653       17.3584367485
Ge            5.0158871286        0.5792213772       14.8776599282



     Writing output data file ./out/ge.save/
     NEW-OLD atomic charge density approx. for the potential

     negative rho (up, down):  9.745E-08 0.000E+00

     total cpu time spent up to now is      101.9 secs

     Self-consistent Calculation

     iteration #  1     ecut=    60.00 Ry     beta= 0.40
     Davidson diagonalization with overlap
     ethr =  1.00E-06,  avg # of iterations =  8.3

     total cpu time spent up to now is      106.7 secs

     total energy              =   -2857.22811592 Ry
     estimated scf accuracy    <       0.00094261 Ry

     iteration #  2     ecut=    60.00 Ry     beta= 0.40
     Davidson diagonalization with overlap
     ethr =  4.21E-07,  avg # of iterations =  5.2

     total cpu time spent up to now is      109.2 secs

     total energy              =   -2857.22784630 Ry
     estimated scf accuracy    <       0.00620209 Ry

     iteration #  3     ecut=    60.00 Ry     beta= 0.40
     Davidson diagonalization with overlap
     ethr =  4.21E-07,  avg # of iterations =  4.3

     total cpu time spent up to now is      111.4 secs

     total energy              =   -2857.22840096 Ry
     estimated scf accuracy    <       0.00035579 Ry

     iteration #  4     ecut=    60.00 Ry     beta= 0.40
     Davidson diagonalization with overlap
     ethr =  1.59E-07,  avg # of iterations =  2.0

     total cpu time spent up to now is      113.2 secs

     total energy              =   -2857.22844213 Ry
     estimated scf accuracy    <       0.00004582 Ry

     iteration #  5     ecut=    60.00 Ry     beta= 0.40
     Davidson diagonalization with overlap
     ethr =  2.05E-08,  avg # of iterations =  2.0

     total cpu time spent up to now is      115.1 secs

     total energy              =   -2857.22843707 Ry
     estimated scf accuracy    <       0.00014545 Ry

     iteration #  6     ecut=    60.00 Ry     beta= 0.40
     Davidson diagonalization with overlap
     ethr =  2.05E-08,  avg # of iterations =  1.8

     total cpu time spent up to now is      116.9 secs

     total energy              =   -2857.22844967 Ry
     estimated scf accuracy    <       0.00001837 Ry

     iteration #  7     ecut=    60.00 Ry     beta= 0.40
     Davidson diagonalization with overlap
     ethr =  8.20E-09,  avg # of iterations =  1.0

     total cpu time spent up to now is      118.5 secs

     total energy              =   -2857.22845070 Ry
[...]

     the Fermi energy is     3.3808 ev

!    total energy              =   -2857.23482644 Ry
     estimated scf accuracy    <       0.00000002 Ry
     smearing contrib. (-TS)   =      -0.00103567 Ry
     internal energy E=F+TS    =   -2857.23379076 Ry

     The total energy is F=E-TS. E is the sum of the following terms:
     one-electron contribution =   -7906.81645184 Ry
     hartree contribution      =    4058.48008853 Ry
     xc contribution           =    -696.81869951 Ry
     ewald contribution        =    1687.92127206 Ry

     convergence has been achieved in   8 iterations

     Forces acting on atoms (cartesian axes, Ry/au):

     atom    1 type  1   force =     0.00000413   -0.00000106   -0.00029950
     atom    2 type  1   force =     0.00003016   -0.00001597   -0.00049731
     atom    3 type  1   force =    -0.00000119    0.00000069   -0.00235173
     atom    4 type  1   force =    -0.00000128    0.00000008    0.00205728
     atom    5 type  1   force =     0.00000169   -0.00000388   -0.00202245
     atom    6 type  1   force =     0.00000322   -0.00000241    0.00234027
     atom    7 type  1   force =     0.00002021   -0.00001156    0.00051491
     atom    8 type  1   force =     0.00000040   -0.00000050    0.00026223
     atom    9 type  1   force =    -0.00000368    0.00000201   -0.00030252
     atom   10 type  1   force =    -0.00003012    0.00001685   -0.00050090
     atom   11 type  1   force =     0.00000172    0.00000010   -0.00234262
     atom   12 type  1   force =     0.00000105   -0.00000073    0.00206205
     atom   13 type  1   force =    -0.00000136   -0.00000016   -0.00202522
     atom   14 type  1   force =    -0.00000414    0.00000147    0.00233382
     atom   15 type  1   force =    -0.00002010    0.00001207    0.00051133
     atom   16 type  1   force =    -0.00000072    0.00000300    0.00026036

     Total force =     0.006322     Total SCF correction =     0.000849
     SCF correction compared to forces is large: reduce conv_thr to get better values
     Energy error            =      2.1E-04 Ry
     Gradient error          =      2.4E-03 Ry/Bohr

     number of scf cycles    =  13
     number of bfgs steps    =  12

     energy             old  =   -2857.2346133425 Ry
     energy             new  =   -2857.2348264353 Ry

     CASE: energy            _new < energy            _old

     new trust radius        =       0.0052168945 bohr
     new conv_thr            =       0.0000000213 Ry


ATOMIC_POSITIONS (angstrom)
Ge            1.0032972808        0.5792257540        7.2962798588
Ge            1.0034560149        0.5790637774        4.8034431821
Ge            3.0095160754        1.7376178737       10.7019774123
Ge            3.0095272807        1.7376681265        8.2181766209
Ge            5.0159661561        2.8958995006       14.0681969425
Ge            5.0160198659        2.8959065149       11.5845446505
Ge            1.0033452693        0.5791020642       17.4828707219
Ge            1.0032469289        0.5791460251       14.9900467293
Ge            5.0157981199        0.5792048981        7.2963743833
Ge            5.0156345151        0.5793556035        4.8035345843
Ge            7.0223121931        1.7374343473       10.7017590065
Ge            7.0222965416        1.7374967661        8.2179418237
Ge            9.0285854973        2.8959544206       14.0683774483
Ge            9.0285373149        2.8958811518       11.5847131822
Ge            5.0157386642        0.5793067434       17.4829723562
Ge            5.0158473975        0.5792337624       14.9901522089



     Writing output data file ./out/ge.save/
     NEW-OLD atomic charge density approx. for the potential

     total cpu time spent up to now is      264.8 secs

     Self-consistent Calculation

     iteration #  1     ecut=    60.00 Ry     beta= 0.40
     Davidson diagonalization with overlap
     ethr =  1.00E-06,  avg # of iterations =  3.0

     Threshold (ethr) on eigenvalues was too large:
     Diagonalizing with lowered threshold

     Davidson diagonalization with overlap
     ethr =  5.91E-09,  avg # of iterations =  3.8

     total cpu time spent up to now is      270.1 secs

     total energy              =   -2857.23486964 Ry
     estimated scf accuracy    <       0.00001127 Ry

     iteration #  2     ecut=    60.00 Ry     beta= 0.40
     Davidson diagonalization with overlap
     ethr =  5.03E-09,  avg # of iterations =  2.3

     total cpu time spent up to now is      272.0 secs

     total energy              =   -2857.23486239 Ry
     estimated scf accuracy    <       0.00018073 Ry

     iteration #  3     ecut=    60.00 Ry     beta= 0.40
     Davidson diagonalization with overlap
     ethr =  5.03E-09,  avg # of iterations =  2.3

     total cpu time spent up to now is      273.9 secs

     total energy              =   -2857.23487462 Ry
     estimated scf accuracy    <       0.00000112 Ry

     iteration #  4     ecut=    60.00 Ry     beta= 0.40
     Davidson diagonalization with overlap
     ethr =  5.02E-10,  avg # of iterations =  3.0

     total cpu time spent up to now is      275.9 secs

     total energy              =   -2857.23487479 Ry
     estimated scf accuracy    <       0.00000089 Ry

     iteration #  5     ecut=    60.00 Ry     beta= 0.40
     Davidson diagonalization with overlap
     ethr =  3.99E-10,  avg # of iterations =  2.2

     total cpu time spent up to now is      277.8 secs

     total energy              =   -2857.23487481 Ry
     estimated scf accuracy    <       0.00000092 Ry

     iteration #  6     ecut=    60.00 Ry     beta= 0.40
     Davidson diagonalization with overlap
     ethr =  3.99E-10,  avg # of iterations =  1.2

     total cpu time spent up to now is      279.4 secs

     total energy              =   -2857.23487489 Ry
     estimated scf accuracy    <       0.00000057 Ry

     iteration #  7     ecut=    60.00 Ry     beta= 0.40
     Davidson diagonalization with overlap
     ethr =  2.54E-10,  avg # of iterations =  1.0

     total cpu time spent up to now is      281.1 secs

     total energy              =   -2857.23487492 Ry
     estimated scf accuracy    <       0.00000003 Ry

     iteration #  8     ecut=    60.00 Ry     beta= 0.40
     Davidson diagonalization with overlap
     ethr =  1.15E-11,  avg # of iterations =  2.0

     total cpu time spent up to now is      282.9 secs

     End of self-consistent calculation

          k = 0.0000 0.0000 0.0000 ( 32973 PWs)   bands (ev):

   -21.4728 -21.4708 -21.4708 -21.4697 -21.4697 -21.4691 -21.4673 -21.4656
   -21.3421 -21.3419 -21.3419 -21.3408 -21.3395 -21.3391 -21.3391 -21.3381
   -21.3261 -21.3250 -21.3239 -21.3234 -21.1528 -21.1451 -21.1451 -21.1388
   -21.1310 -21.1012 -21.1002 -21.0822 -21.0822 -21.0741 -21.0473 -21.0338
   -21.0257 -21.0257 -21.0252 -21.0201 -21.0201 -21.0180 -21.0040 -20.9858
   -20.9799 -20.9758 -20.9723 -20.9723 -20.9719 -20.9719 -20.9568 -20.9519
   -20.9423 -20.9307 -20.9287 -20.9037 -20.9037 -20.8931 -20.8917 -20.8796
   -20.8700 -20.8673 -20.8673 -20.8480 -20.7502 -20.7488 -20.7370 -20.7358
   -20.7325 -20.7278 -20.7276 -20.7276 -20.7259 -20.7259 -20.7155 -20.7152
   -20.7012 -20.6999 -20.6885 -20.6885 -20.6867 -20.6867 -20.6850 -20.6840
    -8.4746  -7.9102  -7.2708  -6.5192  -6.1394  -5.6571  -4.9952  -4.9575
    -4.7655  -4.1424  -3.5718  -3.0227  -2.9244  -2.5423  -0.7739   0.3353
     0.5717   1.1042   1.1952   1.7310   1.7806   2.0535   2.2318   2.3036
     2.7131   2.7847   2.7847   2.9460   3.2419   3.2419   3.6723   3.6723
     4.3490   4.3763   4.7309   4.8665   4.9759   5.1505   5.2104   5.3091
     5.5407   5.8623   5.8623   6.0318   6.0318   6.2428   6.8491   7.1171
     7.1171   7.2331   7.3101   7.7376   7.7634   7.7796

          k = 0.0000 0.5774 0.0000 ( 32917 PWs)   bands (ev):

   -21.4718 -21.4695 -21.4692 -21.4678 -21.4671 -21.4667 -21.4653 -21.4640
   -21.3425 -21.3421 -21.3418 -21.3413 -21.3410 -21.3406 -21.3393 -21.3386
   -21.3244 -21.3235 -21.3229 -21.3220 -21.1614 -21.1503 -21.1499 -21.1418
   -21.1284 -21.1147 -21.0848 -21.0622 -21.0535 -21.0527 -21.0420 -21.0401
   -21.0323 -21.0294 -21.0212 -21.0198 -21.0161 -21.0076 -21.0003 -20.9981
   -20.9816 -20.9730 -20.9698 -20.9644 -20.9573 -20.9527 -20.9513 -20.9464
   -20.9411 -20.9390 -20.9380 -20.9307 -20.9188 -20.9133 -20.8796 -20.8785
   -20.8670 -20.8567 -20.8556 -20.8392 -20.7608 -20.7595 -20.7498 -20.7483
   -20.7336 -20.7329 -20.7329 -20.7313 -20.7164 -20.7160 -20.7151 -20.7139
   -20.6994 -20.6984 -20.6914 -20.6906 -20.6854 -20.6845 -20.6787 -20.6783
    -7.8255  -7.2752  -6.6616  -6.6377  -6.1894  -5.6251  -4.8483  -4.6989
    -4.3996  -4.0918  -3.4046  -2.7799  -2.7235  -2.5581  -1.4942  -0.6697
     0.1750   0.2201   0.2251   0.3356   0.6275   1.0780   1.3229   1.8124
     1.9977   2.1783   2.3355   2.3852   2.6330   2.8277   2.8729   2.9136
     3.5740   3.8751   3.9472   4.0733   5.1029   5.5278   5.5443   5.6169
     5.7579   6.0541   6.1022   6.4363   6.4942   7.0506   7.3353   7.4844
     7.9613   8.0186   8.2337   8.3531   8.3916   8.8185

          k = 0.0000-1.1547 0.0000 ( 32908 PWs)   bands (ev):

   -21.4728 -21.4728 -21.4691 -21.4691 -21.4673 -21.4672 -21.4656 -21.4656
   -21.3421 -21.3421 -21.3408 -21.3408 -21.3395 -21.3395 -21.3381 -21.3381
   -21.3239 -21.3239 -21.3234 -21.3234 -21.1528 -21.1528 -21.1388 -21.1388
   -21.1310 -21.1310 -21.0741 -21.0741 -21.0473 -21.0473 -21.0338 -21.0338
   -21.0252 -21.0252 -21.0180 -21.0180 -21.0040 -21.0040 -20.9858 -20.9858
   -20.9799 -20.9799 -20.9758 -20.9758 -20.9568 -20.9568 -20.9519 -20.9519
   -20.9423 -20.9423 -20.9307 -20.9307 -20.9287 -20.9287 -20.8796 -20.8796
   -20.8700 -20.8700 -20.8480 -20.8480 -20.7502 -20.7502 -20.7488 -20.7488
   -20.7371 -20.7370 -20.7358 -20.7358 -20.7155 -20.7155 -20.7152 -20.7152
   -20.7012 -20.7012 -20.6999 -20.6999 -20.6850 -20.6850 -20.6840 -20.6840
    -6.5192  -6.5192  -6.1394  -6.1394  -5.6571  -5.6571  -4.9575  -4.9575
    -4.1424  -4.1424  -3.5718  -3.5718  -3.0227  -3.0227  -2.9244  -2.9244
     0.3353   0.3353   0.5717   0.5717   1.1952   1.1952   1.7310   1.7310
     1.7806   1.7806   2.0535   2.0535   2.2318   2.2318   2.3036   2.3036
     2.7130   2.7131   4.8665   4.8665   4.9759   4.9759   5.1505   5.1505
     5.2104   5.2104   5.3090   5.3091   5.5406   5.5407   7.2331   7.2331
     7.3101   7.3101   7.7760   7.7760   8.2817   8.2817

          k =-0.5000 0.2887 0.0000 ( 32960 PWs)   bands (ev):

   -21.4718 -21.4717 -21.4696 -21.4695 -21.4671 -21.4671 -21.4667 -21.4666
   -21.3421 -21.3421 -21.3418 -21.3417 -21.3414 -21.3413 -21.3393 -21.3393
   -21.3235 -21.3235 -21.3230 -21.3229 -21.1503 -21.1503 -21.1499 -21.1499
   -21.1147 -21.1147 -21.0848 -21.0848 -21.0622 -21.0622 -21.0536 -21.0535
   -21.0323 -21.0323 -21.0212 -21.0212 -21.0161 -21.0161 -21.0076 -21.0076
   -20.9730 -20.9730 -20.9698 -20.9698 -20.9574 -20.9573 -20.9527 -20.9527
   -20.9380 -20.9380 -20.9188 -20.9188 -20.9133 -20.9133 -20.8796 -20.8796
   -20.8567 -20.8567 -20.8556 -20.8555 -20.7498 -20.7498 -20.7483 -20.7483
   -20.7329 -20.7329 -20.7313 -20.7313 -20.7164 -20.7164 -20.7160 -20.7160
   -20.6914 -20.6914 -20.6906 -20.6906 -20.6854 -20.6854 -20.6846 -20.6845
    -7.8255  -7.8255  -7.2753  -7.2752  -6.6378  -6.6377  -4.6991  -4.6986
    -4.3998  -4.3994  -2.7236  -2.7234  -1.4943  -1.4941  -0.6698  -0.6697
     0.2201   0.2202   1.0780   1.0780   1.8124   1.8124   1.9976   1.9978
     2.3354   2.3355   2.6329   2.6331   2.8277   2.8277   3.5737   3.5743
     3.9469   3.9476   5.1028   5.1030   5.5277   5.5279   5.5440   5.5445
     5.6166   5.6172   5.7579   5.7580   6.4362   6.4364   7.0505   7.0508
     7.4843   7.4845   8.0186   8.0186   8.3531   8.3531

          k =-0.5000-0.8660 0.0000 ( 32874 PWs)   bands (ev):

   -21.4692 -21.4692 -21.4678 -21.4678 -21.4653 -21.4653 -21.4640 -21.4640
   -21.3425 -21.3425 -21.3410 -21.3410 -21.3406 -21.3406 -21.3386 -21.3386
   -21.3244 -21.3243 -21.3220 -21.3219 -21.1614 -21.1614 -21.1418 -21.1418
   -21.1284 -21.1284 -21.0527 -21.0527 -21.0420 -21.0420 -21.0401 -21.0401
   -21.0294 -21.0294 -21.0198 -21.0198 -21.0003 -21.0003 -20.9981 -20.9981
   -20.9816 -20.9816 -20.9644 -20.9644 -20.9514 -20.9514 -20.9464 -20.9464
   -20.9411 -20.9411 -20.9390 -20.9390 -20.9307 -20.9307 -20.8785 -20.8785
   -20.8670 -20.8670 -20.8392 -20.8392 -20.7608 -20.7608 -20.7595 -20.7595
   -20.7336 -20.7336 -20.7329 -20.7329 -20.7151 -20.7151 -20.7139 -20.7139
   -20.6994 -20.6994 -20.6984 -20.6984 -20.6787 -20.6787 -20.6783 -20.6783
    -6.6616  -6.6616  -6.1894  -6.1894  -5.6251  -5.6251  -4.8483  -4.8482
    -4.0918  -4.0918  -3.4046  -3.4046  -2.7799  -2.7799  -2.5581  -2.5581
     0.1750   0.1750   0.2251   0.2251   0.3355   0.3355   0.6275   0.6275
     1.3229   1.3229   2.1783   2.1783   2.3852   2.3852   2.8728   2.8729
     2.9135   2.9136   3.8751   3.8751   4.0733   4.0733   6.0540   6.0541
     6.1022   6.1022   6.4941   6.4942   7.3353   7.3353   7.9613   7.9613
     8.2337   8.2337   8.3915   8.3916   8.8185   8.8185

          k =-0.5000-0.2887 0.0000 ( 32917 PWs)   bands (ev):

   -21.4718 -21.4695 -21.4692 -21.4678 -21.4671 -21.4667 -21.4653 -21.4640
   -21.3425 -21.3421 -21.3418 -21.3413 -21.3410 -21.3406 -21.3393 -21.3386
   -21.3244 -21.3235 -21.3229 -21.3220 -21.1614 -21.1503 -21.1499 -21.1418
   -21.1284 -21.1147 -21.0848 -21.0622 -21.0535 -21.0527 -21.0420 -21.0401
   -21.0323 -21.0294 -21.0212 -21.0198 -21.0161 -21.0076 -21.0003 -20.9981
   -20.9816 -20.9730 -20.9698 -20.9644 -20.9573 -20.9527 -20.9514 -20.9464
   -20.9411 -20.9390 -20.9380 -20.9307 -20.9188 -20.9133 -20.8796 -20.8785
   -20.8670 -20.8567 -20.8556 -20.8392 -20.7608 -20.7595 -20.7498 -20.7483
   -20.7336 -20.7329 -20.7329 -20.7313 -20.7164 -20.7160 -20.7151 -20.7139
   -20.6994 -20.6984 -20.6914 -20.6906 -20.6854 -20.6845 -20.6787 -20.6783
    -7.8255  -7.2752  -6.6616  -6.6377  -6.1894  -5.6251  -4.8483  -4.6989
    -4.3996  -4.0918  -3.4046  -2.7799  -2.7235  -2.5581  -1.4942  -0.6697
     0.1750   0.2201   0.2251   0.3355   0.6275   1.0780   1.3229   1.8124
     1.9977   2.1783   2.3355   2.3852   2.6330   2.8277   2.8729   2.9136
     3.5740   3.8751   3.9472   4.0733   5.1029   5.5278   5.5443   5.6169
     5.7579   6.0541   6.1022   6.4363   6.4942   7.0506   7.3353   7.4844
     7.9613   8.0186   8.2337   8.3531   8.3916   8.8185

     the Fermi energy is     3.3828 ev

!    total energy              =   -2857.23487492 Ry
     estimated scf accuracy    <          8.2E-10 Ry
     smearing contrib. (-TS)   =      -0.00108456 Ry
     internal energy E=F+TS    =   -2857.23379036 Ry

     The total energy is F=E-TS. E is the sum of the following terms:
     one-electron contribution =   -7905.43691500 Ry
     hartree contribution      =    4057.80132688 Ry
     xc contribution           =    -696.81720286 Ry
     ewald contribution        =    1687.21900062 Ry

     convergence has been achieved in   8 iterations

     Forces acting on atoms (cartesian axes, Ry/au):

     atom    1 type  1   force =     0.00000274   -0.00000084    0.00022669
     atom    2 type  1   force =     0.00003308   -0.00001768   -0.00046134
     atom    3 type  1   force =    -0.00000021    0.00000005   -0.00030797
     atom    4 type  1   force =    -0.00000070    0.00000020    0.00056308
     atom    5 type  1   force =     0.00000115   -0.00000230   -0.00051811
     atom    6 type  1   force =     0.00000115   -0.00000097    0.00027274
     atom    7 type  1   force =     0.00002202   -0.00001260    0.00046760
     atom    8 type  1   force =     0.00000023   -0.00000041   -0.00023893
     atom    9 type  1   force =    -0.00000262    0.00000135    0.00022444
     atom   10 type  1   force =    -0.00003296    0.00001850   -0.00046482
     atom   11 type  1   force =     0.00000032    0.00000019   -0.00030230
     atom   12 type  1   force =     0.00000060   -0.00000034    0.00056565
     atom   13 type  1   force =    -0.00000103   -0.00000044   -0.00052004
     atom   14 type  1   force =    -0.00000159    0.00000077    0.00026883
     atom   15 type  1   force =    -0.00002178    0.00001299    0.00046414
     atom   16 type  1   force =    -0.00000040    0.00000153   -0.00023966

     Total force =     0.001610     Total SCF correction =     0.000174
     SCF correction compared to forces is large: reduce conv_thr to get better values
     Energy error            =      4.8E-05 Ry
     Gradient error          =      5.7E-04 Ry/Bohr

     bfgs converged in  14 scf cycles and  13 bfgs steps
     (criteria: energy <  1.0E-04 Ry, force <  1.0E-03 Ry/Bohr)

     End of BFGS Geometry Optimization

     Final energy             =   -2857.2348749196 Ry

     File ./out/ge.bfgs deleted, as requested
Begin final coordinates

ATOMIC_POSITIONS (angstrom)
Ge            1.0032972808        0.5792257540        7.2962798588
Ge            1.0034560149        0.5790637774        4.8034431821
Ge            3.0095160754        1.7376178737       10.7019774123
Ge            3.0095272807        1.7376681265        8.2181766209
Ge            5.0159661561        2.8958995006       14.0681969425
Ge            5.0160198659        2.8959065149       11.5845446505
Ge            1.0033452693        0.5791020642       17.4828707219
Ge            1.0032469289        0.5791460251       14.9900467293
Ge            5.0157981199        0.5792048981        7.2963743833
Ge            5.0156345151        0.5793556035        4.8035345843
Ge            7.0223121931        1.7374343473       10.7017590065
Ge            7.0222965416        1.7374967661        8.2179418237
Ge            9.0285854973        2.8959544206       14.0683774483
Ge            9.0285373149        2.8958811518       11.5847131822
Ge            5.0157386642        0.5793067434       17.4829723562
Ge            5.0158473975        0.5792337624       14.9901522089
End final coordinates



     Writing output data file ./out/ge.save/
 
     init_run     :      0.65s CPU      0.98s WALL (       1 calls)
     electrons    :    215.15s CPU    274.68s WALL (      14 calls)
     update_pot   :      0.66s CPU      0.73s WALL (      13 calls)
     forces       :      4.12s CPU      6.55s WALL (      14 calls)

     Called by init_run:
     wfcinit      :      0.56s CPU      0.80s WALL (       1 calls)
     potinit      :      0.02s CPU      0.03s WALL (       1 calls)
     hinit0       :      0.03s CPU      0.08s WALL (       1 calls)

     Called by electrons:
     c_bands      :    191.99s CPU    248.85s WALL (     125 calls)
     sum_band     :     22.15s CPU     24.22s WALL (     125 calls)
     v_of_rho     :      0.76s CPU      0.96s WALL (     133 calls)
     mix_rho      :      0.22s CPU      0.23s WALL (     125 calls)

     Called by c_bands:
     init_us_2    :      2.51s CPU      2.60s WALL (    1590 calls)
     cegterg      :    181.52s CPU    237.36s WALL (     750 calls)

     Called by *egterg:
     cdiaghg      :     26.41s CPU     57.95s WALL (    2877 calls)
     h_psi        :    111.22s CPU    123.54s WALL (    2997 calls)
     g_psi        :      0.43s CPU      0.48s WALL (    2241 calls)

     Called by h_psi:
     h_psi:calbec :     10.99s CPU     13.37s WALL (    2997 calls)
     vloc_psi     :     90.95s CPU    100.69s WALL (    2997 calls)
     add_vuspsi   :      8.34s CPU      8.48s WALL (    2997 calls)

     General routines
     calbec       :     13.21s CPU     17.88s WALL (    3333 calls)
     fft          :      0.66s CPU      0.98s WALL (    1489 calls)
     ffts         :      0.04s CPU      0.05s WALL (     125 calls)
     fftw         :    102.78s CPU    113.75s WALL (  589306 calls)
 
     Parallel routines
 
     PWSCF        :   3m41.18s CPU   4m44.35s WALL

 
   This run was terminated on:  10:49:31  28Apr2025            

=------------------------------------------------------------------------------=
   JOB DONE.
=------------------------------------------------------------------------------=
