
     Program PWSCF v.7.2 starts on 12May2025 at 14: 1: 9 

     This program is part of the open-source Quantum ESPRESSO suite
     for quantum simulation of materials; please cite
         "P. Giannozzi et al., J. Phys.:Condens. Matter 21 395502 (2009);
         "P. Giannozzi et al., J. Phys.:Condens. Matter 29 465901 (2017);
         "P. Giannozzi et al., J. Chem. Phys. 152 154105 (2020);
          URL http://www.quantum-espresso.org", 
     in publications or presentations arising from this work. More details at
     http://www.quantum-espresso.org/quote

     Parallel version (MPI), running on     8 processors

     MPI processes distributed on     1 nodes
     205610 MiB available memory on the printing compute node when the environment starts

     Waiting for input...
     Reading input from standard input
Warning: card &CELL ignored
Warning: card / ignored
Warning: card &FCP ignored
Warning: card / ignored
Warning: card &RISM ignored
Warning: card / ignored

     Current dimensions of program PWSCF are:
     Max number of different atomic species (ntypx) = 10
     Max number of k-points (npk) =  40000
     Max angular momentum in pseudopotentials (lmaxx) =  4

     gamma-point specific algorithms are used

     R & G space division:  proc/nbgrp/npool/nimage =       8
     Subspace diagonalization in iterative solution of the eigenvalue problem:
     a serial algorithm will be used


     Parallelization info
     --------------------
     sticks:   dense  smooth     PW     G-vecs:    dense   smooth      PW
     Min        1225    1225    305                91534    91534   11450
     Max        1228    1228    308                91540    91540   11456
     Sum        9809    9809   2449               732287   732287   91623

     Using Slab Decomposition



     bravais-lattice index     =            0
     lattice parameter (alat)  =      22.6767  a.u.
     unit-cell volume          =   11661.1211 (a.u.)^3
     number of atoms/cell      =            6
     number of atomic types    =            2
     number of electrons       =        16.00
     number of Kohn-Sham states=            8
     kinetic-energy cutoff     =      60.0000  Ry
     charge density cutoff     =     240.0000  Ry
     scf convergence threshold =      1.0E-08
     mixing beta               =       0.5000
     number of iterations used =            8  plain     mixing
     Exchange-correlation= PBE
                           (   1   4   3   4   0   0   0)

     celldm(1)=  22.676713  celldm(2)=   0.000000  celldm(3)=   0.000000
     celldm(4)=   0.000000  celldm(5)=   0.000000  celldm(6)=   0.000000

     crystal axes: (cart. coord. in units of alat)
               a(1) = (   1.000000   0.000000   0.000000 )  
               a(2) = (   0.000000   1.000000   0.000000 )  
               a(3) = (   0.000000   0.000000   1.000000 )  

     reciprocal axes: (cart. coord. in units 2 pi/alat)
               b(1) = (  1.000000  0.000000  0.000000 )  
               b(2) = (  0.000000  1.000000  0.000000 )  
               b(3) = (  0.000000  0.000000  1.000000 )  


     PseudoPot. # 1 for O  read from file:
     ./O.upf
     MD5 check sum: 9db02a5ece9d56b81b65a73f8163743d
     Pseudo is Norm-conserving + core correction, Zval =  6.0
     Generated using ONCVPSP code by D. R. Hamann
     Using radial grid of  936 points,  5 beta functions with: 
                l(1) =   0
                l(2) =   0
                l(3) =   1
                l(4) =   1
                l(5) =   2

     PseudoPot. # 2 for H  read from file:
     ./H.upf
     MD5 check sum: e96aa7e3e4a958db16958554ea960e2a
     Pseudo is Norm-conserving, Zval =  1.0
     Generated using ONCVPSP code by D. R. Hamann
     Using radial grid of 1166 points,  3 beta functions with: 
                l(1) =   0
                l(2) =   0
                l(3) =   1

     atomic species   valence    mass     pseudopotential
        O              6.00    15.99900     O ( 1.00)
        H              1.00     1.00800     H ( 1.00)

     No symmetry found



   Cartesian axes

     site n.     atom                  positions (alat units)
         1           O   tau(   1) = (  -0.2503754   0.1086414  -0.0039949  )
         2           H   tau(   2) = (  -0.1718787   0.0966176   0.0129537  )
         3           H   tau(   3) = (  -0.2882844   0.0456469   0.0276401  )
         4           O   tau(   4) = (  -0.0163116   0.0908894   0.0425254  )
         5           H   tau(   5) = (   0.0261601   0.0951935  -0.0257541  )
         6           H   tau(   6) = (   0.0046099   0.1567570   0.0838904  )

     number of k points=     1
                       cart. coord. in units 2pi/alat
        k(    1) = (   0.0000000   0.0000000   0.0000000), wk =   2.0000000

     Dense  grid:   366144 G-vectors     FFT dimensions: ( 120, 120, 120)

     Estimated max dynamical RAM per process >      44.55 MB

     Estimated total dynamical RAM >     356.41 MB

     Check: negative core charge=   -0.000005

     Initial potential from superposition of free atoms

     starting charge      16.0000, renormalised to      16.0000

     negative rho (up, down):  6.069E-04 0.000E+00
     Starting wfcs are   12 randomized atomic wfcs

     total cpu time spent up to now is        2.4 secs

     Self-consistent Calculation

     iteration #  1     ecut=    60.00 Ry     beta= 0.50
     Davidson diagonalization with overlap
     ethr =  1.00E-02,  avg # of iterations =  2.0

     negative rho (up, down):  2.779E-04 0.000E+00

     total cpu time spent up to now is        3.6 secs

     total energy              =     -70.77362420 Ry
     estimated scf accuracy    <       0.87430172 Ry

     iteration #  2     ecut=    60.00 Ry     beta= 0.50
     Davidson diagonalization with overlap
     ethr =  5.46E-03,  avg # of iterations =  2.0

     negative rho (up, down):  1.594E-04 0.000E+00

     total cpu time spent up to now is        4.8 secs

     total energy              =     -71.01467048 Ry
     estimated scf accuracy    <       0.11652208 Ry

     iteration #  3     ecut=    60.00 Ry     beta= 0.50
     Davidson diagonalization with overlap
     ethr =  7.28E-04,  avg # of iterations =  2.0

     negative rho (up, down):  8.763E-07 0.000E+00

     total cpu time spent up to now is        6.0 secs

     total energy              =     -71.01684634 Ry
     estimated scf accuracy    <       0.01791308 Ry

     iteration #  4     ecut=    60.00 Ry     beta= 0.50
     Davidson diagonalization with overlap
     ethr =  1.12E-04,  avg # of iterations =  3.0

     negative rho (up, down):  1.372E-07 0.000E+00

     total cpu time spent up to now is        7.3 secs

     total energy              =     -71.02014030 Ry
     estimated scf accuracy    <       0.01347866 Ry

     iteration #  5     ecut=    60.00 Ry     beta= 0.50
     Davidson diagonalization with overlap
     ethr =  8.42E-05,  avg # of iterations =  2.0

     negative rho (up, down):  1.068E-07 0.000E+00

     total cpu time spent up to now is        8.4 secs

     total energy              =     -71.02128956 Ry
     estimated scf accuracy    <       0.00110995 Ry

     iteration #  6     ecut=    60.00 Ry     beta= 0.50
     Davidson diagonalization with overlap
     ethr =  6.94E-06,  avg # of iterations =  2.0

     total cpu time spent up to now is        9.6 secs

     total energy              =     -71.02118750 Ry
     estimated scf accuracy    <       0.00042532 Ry

     iteration #  7     ecut=    60.00 Ry     beta= 0.50
     Davidson diagonalization with overlap
     ethr =  2.66E-06,  avg # of iterations =  3.0

     total cpu time spent up to now is       10.9 secs

     total energy              =     -71.02133983 Ry
     estimated scf accuracy    <       0.00003130 Ry

     iteration #  8     ecut=    60.00 Ry     beta= 0.50
     Davidson diagonalization with overlap
     ethr =  1.96E-07,  avg # of iterations =  2.0

     total cpu time spent up to now is       12.1 secs

     total energy              =     -71.02133688 Ry
     estimated scf accuracy    <       0.00001160 Ry

     iteration #  9     ecut=    60.00 Ry     beta= 0.50
     Davidson diagonalization with overlap
     ethr =  7.25E-08,  avg # of iterations =  2.0

     total cpu time spent up to now is       13.3 secs

     total energy              =     -71.02133940 Ry
     estimated scf accuracy    <       0.00000053 Ry

     iteration # 10     ecut=    60.00 Ry     beta= 0.50
     Davidson diagonalization with overlap
     ethr =  3.34E-09,  avg # of iterations =  2.0

     total cpu time spent up to now is       14.6 secs

     total energy              =     -71.02133929 Ry
     estimated scf accuracy    <       0.00000076 Ry

     iteration # 11     ecut=    60.00 Ry     beta= 0.50
     Davidson diagonalization with overlap
     ethr =  3.34E-09,  avg # of iterations =  2.0

     total cpu time spent up to now is       15.9 secs

     total energy              =     -71.02133941 Ry
     estimated scf accuracy    <       0.00000006 Ry

     iteration # 12     ecut=    60.00 Ry     beta= 0.50
     Davidson diagonalization with overlap
     ethr =  3.53E-10,  avg # of iterations =  3.0

     total cpu time spent up to now is       17.2 secs

     total energy              =     -71.02133943 Ry
     estimated scf accuracy    <       0.00000001 Ry

     iteration # 13     ecut=    60.00 Ry     beta= 0.50
     Davidson diagonalization with overlap
     ethr =  7.21E-11,  avg # of iterations =  2.0

     total cpu time spent up to now is       18.3 secs

     End of self-consistent calculation

          k = 0.0000 0.0000 0.0000 ( 45812 PWs)   bands (ev):

   -25.9813 -24.3789 -13.7473 -12.3545 -10.0421  -8.4489  -7.7747  -6.3814

     highest occupied level (ev):    -6.3814

!    total energy              =     -71.02133943 Ry
     estimated scf accuracy    <          7.1E-10 Ry

     The total energy is the sum of the following terms:
     one-electron contribution =    -149.46029812 Ry
     hartree contribution      =      77.86544274 Ry
     xc contribution           =     -19.63876250 Ry
     ewald contribution        =      20.21227844 Ry

     convergence has been achieved in  13 iterations

     Forces acting on atoms (cartesian axes, Ry/au):

     atom    1 type  1   force =    -0.00023901    0.00752142   -0.00458725
     atom    2 type  2   force =     0.00275151   -0.00123960    0.00148813
     atom    3 type  2   force =    -0.00267876   -0.00636866    0.00324252
     atom    4 type  1   force =     0.00006413    0.00021846    0.00007522
     atom    5 type  2   force =     0.00010077   -0.00002483   -0.00017493
     atom    6 type  2   force =     0.00000135   -0.00010680   -0.00004369
     The non-local contrib.  to forces
     atom    1 type  1   force =     0.76449105   -1.65216295    1.05341091
     atom    2 type  2   force =    -0.20365760    0.02527877   -0.04055007
     atom    3 type  2   force =     0.10895424    0.16934315   -0.08414829
     atom    4 type  1   force =     1.29109591    1.56855595   -0.62669364
     atom    5 type  2   force =    -0.11158086   -0.00546868    0.18522128
     atom    6 type  2   force =    -0.05223683   -0.17462137   -0.11621913
     The ionic contribution  to forces
     atom    1 type  1   force =    -4.45366325    3.51982317   -2.69989390
     atom    2 type  2   force =     2.55805317   -0.42387513    0.52321440
     atom    3 type  2   force =    -2.26469234   -3.01957709    1.44769666
     atom    4 type  1   force =     0.57214424   -3.28668286    1.84251858
     atom    5 type  2   force =     2.32197518    0.06843355   -3.29411571
     atom    6 type  2   force =     1.26618301    3.14187836    2.18057997
     The local contribution  to forces
     atom    1 type  1   force =     3.70971193   -1.90729007    1.67187774
     atom    2 type  2   force =    -2.35161629    0.39736625   -0.48119941
     atom    3 type  2   force =     2.15307993    2.84387287   -1.36032894
     atom    4 type  1   force =    -1.82578152    1.76343753   -1.23365004
     atom    5 type  2   force =    -2.21027545   -0.06297918    3.10869964
     atom    6 type  2   force =    -1.21392510   -2.96735782   -2.06443252
     The core correction contribution to forces
     atom    1 type  1   force =    -0.02075224    0.04714711   -0.02999754
     atom    2 type  2   force =     0.00000000    0.00000000    0.00000000
     atom    3 type  2   force =     0.00000000    0.00000000    0.00000000
     atom    4 type  1   force =    -0.03737924   -0.04508871    0.01787824
     atom    5 type  2   force =     0.00000000    0.00000000    0.00000000
     atom    6 type  2   force =     0.00000000    0.00000000    0.00000000
     The Hubbard contrib.    to forces
     atom    1 type  1   force =     0.00000000    0.00000000    0.00000000
     atom    2 type  2   force =     0.00000000    0.00000000    0.00000000
     atom    3 type  2   force =     0.00000000    0.00000000    0.00000000
     atom    4 type  1   force =     0.00000000    0.00000000    0.00000000
     atom    5 type  2   force =     0.00000000    0.00000000    0.00000000
     atom    6 type  2   force =     0.00000000    0.00000000    0.00000000
     The SCF correction term to forces
     atom    1 type  1   force =    -0.00000477    0.00001566   -0.00000966
     atom    2 type  2   force =    -0.00000605    0.00000204   -0.00000200
     atom    3 type  2   force =     0.00000114    0.00000393   -0.00000212
     atom    4 type  1   force =     0.00000647    0.00000806   -0.00000311
     atom    5 type  2   force =     0.00000362    0.00000099   -0.00000535
     atom    6 type  2   force =     0.00000201    0.00000556    0.00000278

     Total force =     0.012139     Total SCF correction =     0.000025

     init_run     :      2.11s CPU      2.27s WALL (       1 calls)
     electrons    :     14.64s CPU     15.93s WALL (       1 calls)
     forces       :      0.88s CPU      0.97s WALL (       1 calls)

     Called by init_run:
     wfcinit      :      0.24s CPU      0.26s WALL (       1 calls)
     potinit      :      0.67s CPU      0.75s WALL (       1 calls)
     hinit0       :      0.99s CPU      1.02s WALL (       1 calls)

     Called by electrons:
     c_bands      :      6.02s CPU      6.31s WALL (      13 calls)
     sum_band     :      2.01s CPU      2.17s WALL (      13 calls)
     v_of_rho     :      5.38s CPU      6.12s WALL (      14 calls)
     mix_rho      :      1.33s CPU      1.44s WALL (      13 calls)

     Called by c_bands:
     init_us_2    :      0.17s CPU      0.18s WALL (      27 calls)
     init_us_2:cp :      0.17s CPU      0.18s WALL (      27 calls)
     regterg      :      5.70s CPU      5.97s WALL (      13 calls)

     Called by *egterg:
     rdiaghg      :      0.01s CPU      0.01s WALL (      42 calls)
     h_psi        :      5.56s CPU      5.84s WALL (      43 calls)
     g_psi        :      0.02s CPU      0.02s WALL (      29 calls)

     Called by h_psi:
     h_psi:calbec :      0.19s CPU      0.20s WALL (      43 calls)
     vloc_psi     :      5.19s CPU      5.46s WALL (      43 calls)
     add_vuspsi   :      0.15s CPU      0.15s WALL (      43 calls)

     General routines
     calbec       :      0.21s CPU      0.21s WALL (      47 calls)
     fft          :      3.61s CPU      4.12s WALL (     120 calls)
     ffts         :      0.35s CPU      0.40s WALL (      13 calls)
     fftw         :      4.65s CPU      4.91s WALL (     356 calls)

     Parallel routines

     PWSCF        :     17.74s CPU     19.34s WALL


   This run was terminated on:  14: 1:29  12May2025            

=------------------------------------------------------------------------------=
   JOB DONE.
=------------------------------------------------------------------------------=
