
     Program PWSCF v.7.2 starts on 12May2025 at 14: 6:59 

     This program is part of the open-source Quantum ESPRESSO suite
     for quantum simulation of materials; please cite
         "P. Giannozzi et al., J. Phys.:Condens. Matter 21 395502 (2009);
         "P. Giannozzi et al., J. Phys.:Condens. Matter 29 465901 (2017);
         "P. Giannozzi et al., J. Chem. Phys. 152 154105 (2020);
          URL http://www.quantum-espresso.org", 
     in publications or presentations arising from this work. More details at
     http://www.quantum-espresso.org/quote

     Parallel version (MPI), running on     8 processors

     MPI processes distributed on     1 nodes
     206671 MiB available memory on the printing compute node when the environment starts

     Waiting for input...
     Reading input from standard input
Warning: card &CELL ignored
Warning: card / ignored
Warning: card &FCP ignored
Warning: card / ignored
Warning: card &RISM ignored
Warning: card / ignored

     Current dimensions of program PWSCF are:
     Max number of different atomic species (ntypx) = 10
     Max number of k-points (npk) =  40000
     Max angular momentum in pseudopotentials (lmaxx) =  4

     gamma-point specific algorithms are used

     R & G space division:  proc/nbgrp/npool/nimage =       8
     Subspace diagonalization in iterative solution of the eigenvalue problem:
     a serial algorithm will be used


     Parallelization info
     --------------------
     sticks:   dense  smooth     PW     G-vecs:    dense   smooth      PW
     Min        1225    1225    305                91534    91534   11450
     Max        1228    1228    308                91540    91540   11456
     Sum        9809    9809   2449               732287   732287   91623

     Using Slab Decomposition



     bravais-lattice index     =            0
     lattice parameter (alat)  =      22.6767  a.u.
     unit-cell volume          =   11661.1211 (a.u.)^3
     number of atoms/cell      =            6
     number of atomic types    =            2
     number of electrons       =        16.00
     number of Kohn-Sham states=            8
     kinetic-energy cutoff     =      60.0000  Ry
     charge density cutoff     =     240.0000  Ry
     scf convergence threshold =      1.0E-08
     mixing beta               =       0.5000
     number of iterations used =            8  plain     mixing
     Exchange-correlation= PBE
                           (   1   4   3   4   0   0   0)

     celldm(1)=  22.676713  celldm(2)=   0.000000  celldm(3)=   0.000000
     celldm(4)=   0.000000  celldm(5)=   0.000000  celldm(6)=   0.000000

     crystal axes: (cart. coord. in units of alat)
               a(1) = (   1.000000   0.000000   0.000000 )  
               a(2) = (   0.000000   1.000000   0.000000 )  
               a(3) = (   0.000000   0.000000   1.000000 )  

     reciprocal axes: (cart. coord. in units 2 pi/alat)
               b(1) = (  1.000000  0.000000  0.000000 )  
               b(2) = (  0.000000  1.000000  0.000000 )  
               b(3) = (  0.000000  0.000000  1.000000 )  


     PseudoPot. # 1 for O  read from file:
     ./O.upf
     MD5 check sum: 9db02a5ece9d56b81b65a73f8163743d
     Pseudo is Norm-conserving + core correction, Zval =  6.0
     Generated using ONCVPSP code by D. R. Hamann
     Using radial grid of  936 points,  5 beta functions with: 
                l(1) =   0
                l(2) =   0
                l(3) =   1
                l(4) =   1
                l(5) =   2

     PseudoPot. # 2 for H  read from file:
     ./H.upf
     MD5 check sum: e96aa7e3e4a958db16958554ea960e2a
     Pseudo is Norm-conserving, Zval =  1.0
     Generated using ONCVPSP code by D. R. Hamann
     Using radial grid of 1166 points,  3 beta functions with: 
                l(1) =   0
                l(2) =   0
                l(3) =   1

     atomic species   valence    mass     pseudopotential
        O              6.00    15.99900     O ( 1.00)
        H              1.00     1.00800     H ( 1.00)

     No symmetry found



   Cartesian axes

     site n.     atom                  positions (alat units)
         1           O   tau(   1) = (  -0.2503754   0.1086414  -0.0048282  )
         2           H   tau(   2) = (  -0.1718787   0.0966176   0.0129537  )
         3           H   tau(   3) = (  -0.2882844   0.0456469   0.0276401  )
         4           O   tau(   4) = (  -0.0163116   0.0908894   0.0433587  )
         5           H   tau(   5) = (   0.0261601   0.0951935  -0.0257541  )
         6           H   tau(   6) = (   0.0046099   0.1567570   0.0838904  )

     number of k points=     1
                       cart. coord. in units 2pi/alat
        k(    1) = (   0.0000000   0.0000000   0.0000000), wk =   2.0000000

     Dense  grid:   366144 G-vectors     FFT dimensions: ( 120, 120, 120)

     Estimated max dynamical RAM per process >      44.55 MB

     Estimated total dynamical RAM >     356.41 MB

     Check: negative core charge=   -0.000005

     Initial potential from superposition of free atoms

     starting charge      16.0000, renormalised to      16.0000

     negative rho (up, down):  6.059E-04 0.000E+00
     Starting wfcs are   12 randomized atomic wfcs

     total cpu time spent up to now is        2.4 secs

     Self-consistent Calculation

     iteration #  1     ecut=    60.00 Ry     beta= 0.50
     Davidson diagonalization with overlap
     ethr =  1.00E-02,  avg # of iterations =  2.0

     negative rho (up, down):  2.775E-04 0.000E+00

     total cpu time spent up to now is        3.6 secs

     total energy              =     -70.77383686 Ry
     estimated scf accuracy    <       0.87080890 Ry

     iteration #  2     ecut=    60.00 Ry     beta= 0.50
     Davidson diagonalization with overlap
     ethr =  5.44E-03,  avg # of iterations =  2.0

     negative rho (up, down):  1.594E-04 0.000E+00

     total cpu time spent up to now is        4.8 secs

     total energy              =     -71.01441252 Ry
     estimated scf accuracy    <       0.11757878 Ry

     iteration #  3     ecut=    60.00 Ry     beta= 0.50
     Davidson diagonalization with overlap
     ethr =  7.35E-04,  avg # of iterations =  2.0

     negative rho (up, down):  8.892E-07 0.000E+00

     total cpu time spent up to now is        5.9 secs

     total energy              =     -71.01663593 Ry
     estimated scf accuracy    <       0.01801956 Ry

     iteration #  4     ecut=    60.00 Ry     beta= 0.50
     Davidson diagonalization with overlap
     ethr =  1.13E-04,  avg # of iterations =  3.0

     negative rho (up, down):  1.397E-07 0.000E+00

     total cpu time spent up to now is        7.3 secs

     total energy              =     -71.01982740 Ry
     estimated scf accuracy    <       0.01431909 Ry

     iteration #  5     ecut=    60.00 Ry     beta= 0.50
     Davidson diagonalization with overlap
     ethr =  8.95E-05,  avg # of iterations =  2.0

     negative rho (up, down):  6.479E-08 0.000E+00

     total cpu time spent up to now is        8.4 secs

     total energy              =     -71.02099563 Ry
     estimated scf accuracy    <       0.00111466 Ry

     iteration #  6     ecut=    60.00 Ry     beta= 0.50
     Davidson diagonalization with overlap
     ethr =  6.97E-06,  avg # of iterations =  2.0

     total cpu time spent up to now is        9.6 secs

     total energy              =     -71.02112553 Ry
     estimated scf accuracy    <       0.00017656 Ry

     iteration #  7     ecut=    60.00 Ry     beta= 0.50
     Davidson diagonalization with overlap
     ethr =  1.10E-06,  avg # of iterations =  3.0

     total cpu time spent up to now is       11.0 secs

     total energy              =     -71.02121628 Ry
     estimated scf accuracy    <       0.00002931 Ry

     iteration #  8     ecut=    60.00 Ry     beta= 0.50
     Davidson diagonalization with overlap
     ethr =  1.83E-07,  avg # of iterations =  1.0

     total cpu time spent up to now is       12.1 secs

     total energy              =     -71.02120805 Ry
     estimated scf accuracy    <       0.00002723 Ry

     iteration #  9     ecut=    60.00 Ry     beta= 0.50
     Davidson diagonalization with overlap
     ethr =  1.70E-07,  avg # of iterations =  2.0

     total cpu time spent up to now is       13.3 secs

     total energy              =     -71.02120867 Ry
     estimated scf accuracy    <       0.00000579 Ry

     iteration # 10     ecut=    60.00 Ry     beta= 0.50
     Davidson diagonalization with overlap
     ethr =  3.62E-08,  avg # of iterations =  2.0

     total cpu time spent up to now is       14.5 secs

     total energy              =     -71.02120875 Ry
     estimated scf accuracy    <       0.00000107 Ry

     iteration # 11     ecut=    60.00 Ry     beta= 0.50
     Davidson diagonalization with overlap
     ethr =  6.66E-09,  avg # of iterations =  2.0

     total cpu time spent up to now is       15.8 secs

     total energy              =     -71.02120903 Ry
     estimated scf accuracy    <       0.00000002 Ry

     iteration # 12     ecut=    60.00 Ry     beta= 0.50
     Davidson diagonalization with overlap
     ethr =  1.10E-10,  avg # of iterations =  3.0

     total cpu time spent up to now is       17.1 secs

     total energy              =     -71.02120903 Ry
     estimated scf accuracy    <       0.00000001 Ry

     iteration # 13     ecut=    60.00 Ry     beta= 0.50
     Davidson diagonalization with overlap
     ethr =  6.86E-11,  avg # of iterations =  2.0

     total cpu time spent up to now is       18.2 secs

     End of self-consistent calculation

          k = 0.0000 0.0000 0.0000 ( 45812 PWs)   bands (ev):

   -25.9690 -24.3554 -13.7188 -12.3066 -10.0500  -8.4683  -7.7736  -6.3784

     highest occupied level (ev):    -6.3784

!    total energy              =     -71.02120903 Ry
     estimated scf accuracy    <          5.8E-09 Ry

     The total energy is the sum of the following terms:
     one-electron contribution =    -149.30641228 Ry
     hartree contribution      =      77.78897119 Ry
     xc contribution           =     -19.62972344 Ry
     ewald contribution        =      20.12595550 Ry

     convergence has been achieved in  13 iterations

     Forces acting on atoms (cartesian axes, Ry/au):

     atom    1 type  1   force =     0.00016641    0.00018532   -0.00035459
     atom    2 type  2   force =    -0.00012543    0.00009391    0.00042825
     atom    3 type  2   force =    -0.00005083   -0.00033120    0.00010420
     atom    4 type  1   force =     0.00586022   -0.00691087   -0.01872466
     atom    5 type  2   force =    -0.00820944   -0.00131297    0.01292171
     atom    6 type  2   force =     0.00235907    0.00827581    0.00562509
     The non-local contrib.  to forces
     atom    1 type  1   force =     0.76341901   -1.63929375    1.08110392
     atom    2 type  2   force =    -0.20158507    0.02516119   -0.04225808
     atom    3 type  2   force =     0.10682567    0.16619127   -0.08474184
     atom    4 type  1   force =     1.28025102    1.57812784   -0.63413007
     atom    5 type  2   force =    -0.10715442   -0.00510926    0.18008132
     atom    6 type  2   force =    -0.05370535   -0.17897844   -0.11663790
     The ionic contribution  to forces
     atom    1 type  1   force =    -4.44224106    3.48032865   -2.76629414
     atom    2 type  2   force =     2.53836483   -0.42054357    0.55009771
     atom    3 type  2   force =    -2.24318789   -2.98406325    1.46638816
     atom    4 type  1   force =     0.59377416   -3.32791780    1.82723071
     atom    5 type  2   force =     2.27299803    0.06343952   -3.25039948
     atom    6 type  2   force =     1.28029194    3.18875646    2.17297703
     The local contribution  to forces
     atom    1 type  1   force =     3.69974867   -1.88797048    1.71587928
     atom    2 type  2   force =    -2.33686383    0.39547756   -0.50745146
     atom    3 type  2   force =     2.13632533    2.81753160   -1.38157975
     atom    4 type  1   force =    -1.83084745    1.78794187   -1.23065469
     atom    5 type  2   force =    -2.17403615   -0.05963613    3.08319670
     atom    6 type  2   force =    -1.22420952   -3.00149855   -2.05076315
     The core correction contribution to forces
     atom    1 type  1   force =    -0.02072270    0.04706254   -0.03104867
     atom    2 type  2   force =     0.00000000    0.00000000    0.00000000
     atom    3 type  2   force =     0.00000000    0.00000000    0.00000000
     atom    4 type  1   force =    -0.03730007   -0.04505543    0.01878273
     atom    5 type  2   force =     0.00000000    0.00000000    0.00000000
     atom    6 type  2   force =     0.00000000    0.00000000    0.00000000
     The Hubbard contrib.    to forces
     atom    1 type  1   force =     0.00000000    0.00000000    0.00000000
     atom    2 type  2   force =     0.00000000    0.00000000    0.00000000
     atom    3 type  2   force =     0.00000000    0.00000000    0.00000000
     atom    4 type  1   force =     0.00000000    0.00000000    0.00000000
     atom    5 type  2   force =     0.00000000    0.00000000    0.00000000
     atom    6 type  2   force =     0.00000000    0.00000000    0.00000000
     The SCF correction term to forces
     atom    1 type  1   force =    -0.00001686    0.00006740   -0.00004256
     atom    2 type  2   force =    -0.00002071    0.00000776   -0.00000750
     atom    3 type  2   force =     0.00000671    0.00001821   -0.00000995
     atom    4 type  1   force =     0.00000320    0.00000169   -0.00000092
     atom    5 type  2   force =     0.00000375    0.00000194   -0.00000442
     atom    6 type  2   force =     0.00000265    0.00000537    0.00000153

     Total force =     0.027839     Total SCF correction =     0.000088

     init_run     :      2.07s CPU      2.25s WALL (       1 calls)
     electrons    :     14.55s CPU     15.77s WALL (       1 calls)
     forces       :      0.88s CPU      0.97s WALL (       1 calls)

     Called by init_run:
     wfcinit      :      0.23s CPU      0.25s WALL (       1 calls)
     potinit      :      0.65s CPU      0.75s WALL (       1 calls)
     hinit0       :      0.98s CPU      1.02s WALL (       1 calls)

     Called by electrons:
     c_bands      :      5.94s CPU      6.22s WALL (      13 calls)
     sum_band     :      2.04s CPU      2.17s WALL (      13 calls)
     v_of_rho     :      5.37s CPU      6.10s WALL (      14 calls)
     mix_rho      :      1.32s CPU      1.43s WALL (      13 calls)

     Called by c_bands:
     init_us_2    :      0.17s CPU      0.17s WALL (      27 calls)
     init_us_2:cp :      0.17s CPU      0.17s WALL (      27 calls)
     regterg      :      5.63s CPU      5.88s WALL (      13 calls)

     Called by *egterg:
     rdiaghg      :      0.01s CPU      0.01s WALL (      41 calls)
     h_psi        :      5.50s CPU      5.76s WALL (      42 calls)
     g_psi        :      0.02s CPU      0.02s WALL (      28 calls)

     Called by h_psi:
     h_psi:calbec :      0.19s CPU      0.20s WALL (      42 calls)
     vloc_psi     :      5.13s CPU      5.38s WALL (      42 calls)
     add_vuspsi   :      0.14s CPU      0.14s WALL (      42 calls)

     General routines
     calbec       :      0.21s CPU      0.22s WALL (      46 calls)
     fft          :      3.60s CPU      4.10s WALL (     120 calls)
     ffts         :      0.33s CPU      0.36s WALL (      13 calls)
     fftw         :      4.49s CPU      4.73s WALL (     354 calls)

     Parallel routines

     PWSCF        :     17.61s CPU     19.15s WALL


   This run was terminated on:  14: 7:18  12May2025            

=------------------------------------------------------------------------------=
   JOB DONE.
=------------------------------------------------------------------------------=
