
     Program PWSCF v.7.2 starts on 12May2025 at 14: 5:43 

     This program is part of the open-source Quantum ESPRESSO suite
     for quantum simulation of materials; please cite
         "P. Giannozzi et al., J. Phys.:Condens. Matter 21 395502 (2009);
         "P. Giannozzi et al., J. Phys.:Condens. Matter 29 465901 (2017);
         "P. Giannozzi et al., J. Chem. Phys. 152 154105 (2020);
          URL http://www.quantum-espresso.org", 
     in publications or presentations arising from this work. More details at
     http://www.quantum-espresso.org/quote

     Parallel version (MPI), running on     8 processors

     MPI processes distributed on     1 nodes
     206675 MiB available memory on the printing compute node when the environment starts

     Waiting for input...
     Reading input from standard input
Warning: card &CELL ignored
Warning: card / ignored
Warning: card &FCP ignored
Warning: card / ignored
Warning: card &RISM ignored
Warning: card / ignored

     Current dimensions of program PWSCF are:
     Max number of different atomic species (ntypx) = 10
     Max number of k-points (npk) =  40000
     Max angular momentum in pseudopotentials (lmaxx) =  4

     gamma-point specific algorithms are used

     R & G space division:  proc/nbgrp/npool/nimage =       8
     Subspace diagonalization in iterative solution of the eigenvalue problem:
     a serial algorithm will be used


     Parallelization info
     --------------------
     sticks:   dense  smooth     PW     G-vecs:    dense   smooth      PW
     Min        1225    1225    305                91534    91534   11450
     Max        1228    1228    308                91540    91540   11456
     Sum        9809    9809   2449               732287   732287   91623

     Using Slab Decomposition



     bravais-lattice index     =            0
     lattice parameter (alat)  =      22.6767  a.u.
     unit-cell volume          =   11661.1211 (a.u.)^3
     number of atoms/cell      =            6
     number of atomic types    =            2
     number of electrons       =        16.00
     number of Kohn-Sham states=            8
     kinetic-energy cutoff     =      60.0000  Ry
     charge density cutoff     =     240.0000  Ry
     scf convergence threshold =      1.0E-08
     mixing beta               =       0.5000
     number of iterations used =            8  plain     mixing
     Exchange-correlation= PBE
                           (   1   4   3   4   0   0   0)

     celldm(1)=  22.676713  celldm(2)=   0.000000  celldm(3)=   0.000000
     celldm(4)=   0.000000  celldm(5)=   0.000000  celldm(6)=   0.000000

     crystal axes: (cart. coord. in units of alat)
               a(1) = (   1.000000   0.000000   0.000000 )  
               a(2) = (   0.000000   1.000000   0.000000 )  
               a(3) = (   0.000000   0.000000   1.000000 )  

     reciprocal axes: (cart. coord. in units 2 pi/alat)
               b(1) = (  1.000000  0.000000  0.000000 )  
               b(2) = (  0.000000  1.000000  0.000000 )  
               b(3) = (  0.000000  0.000000  1.000000 )  


     PseudoPot. # 1 for O  read from file:
     ./O.upf
     MD5 check sum: 9db02a5ece9d56b81b65a73f8163743d
     Pseudo is Norm-conserving + core correction, Zval =  6.0
     Generated using ONCVPSP code by D. R. Hamann
     Using radial grid of  936 points,  5 beta functions with: 
                l(1) =   0
                l(2) =   0
                l(3) =   1
                l(4) =   1
                l(5) =   2

     PseudoPot. # 2 for H  read from file:
     ./H.upf
     MD5 check sum: e96aa7e3e4a958db16958554ea960e2a
     Pseudo is Norm-conserving, Zval =  1.0
     Generated using ONCVPSP code by D. R. Hamann
     Using radial grid of 1166 points,  3 beta functions with: 
                l(1) =   0
                l(2) =   0
                l(3) =   1

     atomic species   valence    mass     pseudopotential
        O              6.00    15.99900     O ( 1.00)
        H              1.00     1.00800     H ( 1.00)

     No symmetry found



   Cartesian axes

     site n.     atom                  positions (alat units)
         1           O   tau(   1) = (  -0.2503754   0.1086414  -0.0048282  )
         2           H   tau(   2) = (  -0.1718787   0.0966176   0.0129537  )
         3           H   tau(   3) = (  -0.2882844   0.0456469   0.0276401  )
         4           O   tau(   4) = (  -0.0154782   0.0908894   0.0425254  )
         5           H   tau(   5) = (   0.0261601   0.0951935  -0.0257541  )
         6           H   tau(   6) = (   0.0046099   0.1567570   0.0838904  )

     number of k points=     1
                       cart. coord. in units 2pi/alat
        k(    1) = (   0.0000000   0.0000000   0.0000000), wk =   2.0000000

     Dense  grid:   366144 G-vectors     FFT dimensions: ( 120, 120, 120)

     Estimated max dynamical RAM per process >      44.55 MB

     Estimated total dynamical RAM >     356.41 MB

     Check: negative core charge=   -0.000005

     Initial potential from superposition of free atoms

     starting charge      16.0000, renormalised to      16.0000

     negative rho (up, down):  6.067E-04 0.000E+00
     Starting wfcs are   12 randomized atomic wfcs

     total cpu time spent up to now is        2.4 secs

     Self-consistent Calculation

     iteration #  1     ecut=    60.00 Ry     beta= 0.50
     Davidson diagonalization with overlap
     ethr =  1.00E-02,  avg # of iterations =  2.0

     negative rho (up, down):  2.779E-04 0.000E+00

     total cpu time spent up to now is        3.6 secs

     total energy              =     -70.77335675 Ry
     estimated scf accuracy    <       0.87492162 Ry

     iteration #  2     ecut=    60.00 Ry     beta= 0.50
     Davidson diagonalization with overlap
     ethr =  5.47E-03,  avg # of iterations =  2.0

     negative rho (up, down):  1.594E-04 0.000E+00

     total cpu time spent up to now is        4.8 secs

     total energy              =     -71.01462974 Ry
     estimated scf accuracy    <       0.11667302 Ry

     iteration #  3     ecut=    60.00 Ry     beta= 0.50
     Davidson diagonalization with overlap
     ethr =  7.29E-04,  avg # of iterations =  2.0

     negative rho (up, down):  9.846E-07 0.000E+00

     total cpu time spent up to now is        5.9 secs

     total energy              =     -71.01642495 Ry
     estimated scf accuracy    <       0.01817787 Ry

     iteration #  4     ecut=    60.00 Ry     beta= 0.50
     Davidson diagonalization with overlap
     ethr =  1.14E-04,  avg # of iterations =  3.0

     negative rho (up, down):  1.382E-07 0.000E+00

     total cpu time spent up to now is        7.2 secs

     total energy              =     -71.01999291 Ry
     estimated scf accuracy    <       0.01452934 Ry

     iteration #  5     ecut=    60.00 Ry     beta= 0.50
     Davidson diagonalization with overlap
     ethr =  9.08E-05,  avg # of iterations =  2.0

     negative rho (up, down):  6.061E-08 0.000E+00

     total cpu time spent up to now is        8.4 secs

     total energy              =     -71.02117166 Ry
     estimated scf accuracy    <       0.00138549 Ry

     iteration #  6     ecut=    60.00 Ry     beta= 0.50
     Davidson diagonalization with overlap
     ethr =  8.66E-06,  avg # of iterations =  2.0

     total cpu time spent up to now is        9.6 secs

     total energy              =     -71.02115780 Ry
     estimated scf accuracy    <       0.00044332 Ry

     iteration #  7     ecut=    60.00 Ry     beta= 0.50
     Davidson diagonalization with overlap
     ethr =  2.77E-06,  avg # of iterations =  2.0

     total cpu time spent up to now is       10.8 secs

     total energy              =     -71.02131122 Ry
     estimated scf accuracy    <       0.00001637 Ry

     iteration #  8     ecut=    60.00 Ry     beta= 0.50
     Davidson diagonalization with overlap
     ethr =  1.02E-07,  avg # of iterations =  3.0

     total cpu time spent up to now is       12.1 secs

     total energy              =     -71.02131420 Ry
     estimated scf accuracy    <       0.00002437 Ry

     iteration #  9     ecut=    60.00 Ry     beta= 0.50
     Davidson diagonalization with overlap
     ethr =  1.02E-07,  avg # of iterations =  1.0

     total cpu time spent up to now is       13.2 secs

     total energy              =     -71.02130641 Ry
     estimated scf accuracy    <       0.00001617 Ry

     iteration # 10     ecut=    60.00 Ry     beta= 0.50
     Davidson diagonalization with overlap
     ethr =  1.01E-07,  avg # of iterations =  2.0

     total cpu time spent up to now is       14.5 secs

     total energy              =     -71.02131004 Ry
     estimated scf accuracy    <       0.00000015 Ry

     iteration # 11     ecut=    60.00 Ry     beta= 0.50
     Davidson diagonalization with overlap
     ethr =  9.66E-10,  avg # of iterations =  2.0

     total cpu time spent up to now is       15.6 secs

     End of self-consistent calculation

          k = 0.0000 0.0000 0.0000 ( 45812 PWs)   bands (ev):

   -26.0084 -24.3654 -13.8101 -12.3108 -10.0145  -8.4739  -7.7811  -6.3872

     highest occupied level (ev):    -6.3872

!    total energy              =     -71.02131006 Ry
     estimated scf accuracy    <          9.9E-09 Ry

     The total energy is the sum of the following terms:
     one-electron contribution =    -149.32925920 Ry
     hartree contribution      =      77.79771665 Ry
     xc contribution           =     -19.63966103 Ry
     ewald contribution        =      20.14989353 Ry

     convergence has been achieved in  11 iterations

     Forces acting on atoms (cartesian axes, Ry/au):

     atom    1 type  1   force =     0.00059980    0.00021637   -0.00011691
     atom    2 type  2   force =    -0.00020662   -0.00007943    0.00013427
     atom    3 type  2   force =    -0.00002062   -0.00034841    0.00009434
     atom    4 type  1   force =    -0.00796385   -0.00504049    0.00661922
     atom    5 type  2   force =     0.00558930    0.00161200   -0.00785347
     atom    6 type  2   force =     0.00200198    0.00363996    0.00112254
     The non-local contrib.  to forces
     atom    1 type  1   force =     0.76504596   -1.63935833    1.08245122
     atom    2 type  2   force =    -0.20164732    0.02517898   -0.04223941
     atom    3 type  2   force =     0.10684306    0.16620794   -0.08474226
     atom    4 type  1   force =     1.26816818    1.57921956   -0.63657778
     atom    5 type  2   force =    -0.11210938   -0.00550009    0.18989130
     atom    6 type  2   force =    -0.05055132   -0.17665699   -0.11776446
     The ionic contribution  to forces
     atom    1 type  1   force =    -4.43063937    3.47888731   -2.75435170
     atom    2 type  2   force =     2.54492683   -0.42095807    0.55703703
     atom    3 type  2   force =    -2.24144082   -2.98365369    1.46739346
     atom    4 type  1   force =     0.57620118   -3.31097831    1.87748471
     atom    5 type  2   force =     2.31560181    0.07158480   -3.34342562
     atom    6 type  2   force =     1.23535037    3.16511798    2.19586212
     The local contribution  to forces
     atom    1 type  1   force =     3.68696162   -1.88627494    1.70277016
     atom    2 type  2   force =    -2.34348278    0.39572544   -0.51470331
     atom    3 type  2   force =     2.13459948    2.81713404   -1.38260068
     atom    4 type  1   force =    -1.81577765    1.77195573   -1.25224151
     atom    5 type  2   force =    -2.19788917   -0.06445516    3.14565677
     atom    6 type  2   force =    -1.18278012   -2.98481156   -2.07701386
     The core correction contribution to forces
     atom    1 type  1   force =    -0.02080556    0.04706279   -0.03107662
     atom    2 type  2   force =     0.00000000    0.00000000    0.00000000
     atom    3 type  2   force =     0.00000000    0.00000000    0.00000000
     atom    4 type  1   force =    -0.03652032   -0.04523031    0.01792810
     atom    5 type  2   force =     0.00000000    0.00000000    0.00000000
     atom    6 type  2   force =     0.00000000    0.00000000    0.00000000
     The Hubbard contrib.    to forces
     atom    1 type  1   force =     0.00000000    0.00000000    0.00000000
     atom    2 type  2   force =     0.00000000    0.00000000    0.00000000
     atom    3 type  2   force =     0.00000000    0.00000000    0.00000000
     atom    4 type  1   force =     0.00000000    0.00000000    0.00000000
     atom    5 type  2   force =     0.00000000    0.00000000    0.00000000
     atom    6 type  2   force =     0.00000000    0.00000000    0.00000000
     The SCF correction term to forces
     atom    1 type  1   force =     0.00005658   -0.00008127    0.00005630
     atom    2 type  2   force =     0.00001608   -0.00000658    0.00000623
     atom    3 type  2   force =    -0.00000291   -0.00001752    0.00001010
     atom    4 type  1   force =    -0.00001581    0.00001202   -0.00000804
     atom    5 type  2   force =     0.00000548    0.00000164   -0.00000966
     atom    6 type  2   force =     0.00000247    0.00000972    0.00000501

     Total force =     0.015726     Total SCF correction =     0.000120

     init_run     :      2.09s CPU      2.26s WALL (       1 calls)
     electrons    :     12.18s CPU     13.21s WALL (       1 calls)
     forces       :      0.88s CPU      0.97s WALL (       1 calls)

     Called by init_run:
     wfcinit      :      0.24s CPU      0.26s WALL (       1 calls)
     potinit      :      0.65s CPU      0.75s WALL (       1 calls)
     hinit0       :      0.98s CPU      1.02s WALL (       1 calls)

     Called by electrons:
     c_bands      :      4.97s CPU      5.19s WALL (      11 calls)
     sum_band     :      1.74s CPU      1.85s WALL (      11 calls)
     v_of_rho     :      4.59s CPU      5.22s WALL (      12 calls)
     mix_rho      :      1.06s CPU      1.14s WALL (      11 calls)

     Called by c_bands:
     init_us_2    :      0.14s CPU      0.15s WALL (      23 calls)
     init_us_2:cp :      0.14s CPU      0.15s WALL (      23 calls)
     regterg      :      4.70s CPU      4.91s WALL (      11 calls)

     Called by *egterg:
     rdiaghg      :      0.01s CPU      0.01s WALL (      34 calls)
     h_psi        :      4.64s CPU      4.86s WALL (      35 calls)
     g_psi        :      0.01s CPU      0.02s WALL (      23 calls)

     Called by h_psi:
     h_psi:calbec :      0.15s CPU      0.16s WALL (      35 calls)
     vloc_psi     :      4.34s CPU      4.56s WALL (      35 calls)
     add_vuspsi   :      0.11s CPU      0.12s WALL (      35 calls)

     General routines
     calbec       :      0.16s CPU      0.17s WALL (      39 calls)
     fft          :      3.25s CPU      3.66s WALL (     104 calls)
     ffts         :      0.27s CPU      0.30s WALL (      11 calls)
     fftw         :      3.77s CPU      3.97s WALL (     298 calls)

     Parallel routines

     PWSCF        :     15.25s CPU     16.60s WALL


   This run was terminated on:  14: 6: 0  12May2025            

=------------------------------------------------------------------------------=
   JOB DONE.
=------------------------------------------------------------------------------=
