
     Program PWSCF v.7.2 starts on 12May2025 at 14: 4:43 

     This program is part of the open-source Quantum ESPRESSO suite
     for quantum simulation of materials; please cite
         "P. Giannozzi et al., J. Phys.:Condens. Matter 21 395502 (2009);
         "P. Giannozzi et al., J. Phys.:Condens. Matter 29 465901 (2017);
         "P. Giannozzi et al., J. Chem. Phys. 152 154105 (2020);
          URL http://www.quantum-espresso.org", 
     in publications or presentations arising from this work. More details at
     http://www.quantum-espresso.org/quote

     Parallel version (MPI), running on     8 processors

     MPI processes distributed on     1 nodes
     206675 MiB available memory on the printing compute node when the environment starts

     Waiting for input...
     Reading input from standard input
Warning: card &CELL ignored
Warning: card / ignored
Warning: card &FCP ignored
Warning: card / ignored
Warning: card &RISM ignored
Warning: card / ignored

     Current dimensions of program PWSCF are:
     Max number of different atomic species (ntypx) = 10
     Max number of k-points (npk) =  40000
     Max angular momentum in pseudopotentials (lmaxx) =  4

     gamma-point specific algorithms are used

     R & G space division:  proc/nbgrp/npool/nimage =       8
     Subspace diagonalization in iterative solution of the eigenvalue problem:
     a serial algorithm will be used


     Parallelization info
     --------------------
     sticks:   dense  smooth     PW     G-vecs:    dense   smooth      PW
     Min        1225    1225    305                91534    91534   11450
     Max        1228    1228    308                91540    91540   11456
     Sum        9809    9809   2449               732287   732287   91623

     Using Slab Decomposition



     bravais-lattice index     =            0
     lattice parameter (alat)  =      22.6767  a.u.
     unit-cell volume          =   11661.1211 (a.u.)^3
     number of atoms/cell      =            6
     number of atomic types    =            2
     number of electrons       =        16.00
     number of Kohn-Sham states=            8
     kinetic-energy cutoff     =      60.0000  Ry
     charge density cutoff     =     240.0000  Ry
     scf convergence threshold =      1.0E-08
     mixing beta               =       0.5000
     number of iterations used =            8  plain     mixing
     Exchange-correlation= PBE
                           (   1   4   3   4   0   0   0)

     celldm(1)=  22.676713  celldm(2)=   0.000000  celldm(3)=   0.000000
     celldm(4)=   0.000000  celldm(5)=   0.000000  celldm(6)=   0.000000

     crystal axes: (cart. coord. in units of alat)
               a(1) = (   1.000000   0.000000   0.000000 )  
               a(2) = (   0.000000   1.000000   0.000000 )  
               a(3) = (   0.000000   0.000000   1.000000 )  

     reciprocal axes: (cart. coord. in units 2 pi/alat)
               b(1) = (  1.000000  0.000000  0.000000 )  
               b(2) = (  0.000000  1.000000  0.000000 )  
               b(3) = (  0.000000  0.000000  1.000000 )  


     PseudoPot. # 1 for O  read from file:
     ./O.upf
     MD5 check sum: 9db02a5ece9d56b81b65a73f8163743d
     Pseudo is Norm-conserving + core correction, Zval =  6.0
     Generated using ONCVPSP code by D. R. Hamann
     Using radial grid of  936 points,  5 beta functions with: 
                l(1) =   0
                l(2) =   0
                l(3) =   1
                l(4) =   1
                l(5) =   2

     PseudoPot. # 2 for H  read from file:
     ./H.upf
     MD5 check sum: e96aa7e3e4a958db16958554ea960e2a
     Pseudo is Norm-conserving, Zval =  1.0
     Generated using ONCVPSP code by D. R. Hamann
     Using radial grid of 1166 points,  3 beta functions with: 
                l(1) =   0
                l(2) =   0
                l(3) =   1

     atomic species   valence    mass     pseudopotential
        O              6.00    15.99900     O ( 1.00)
        H              1.00     1.00800     H ( 1.00)

     No symmetry found



   Cartesian axes

     site n.     atom                  positions (alat units)
         1           O   tau(   1) = (  -0.2503754   0.1086414  -0.0048282  )
         2           H   tau(   2) = (  -0.1718787   0.0966176   0.0129537  )
         3           H   tau(   3) = (  -0.2882844   0.0456469   0.0268068  )
         4           O   tau(   4) = (  -0.0163116   0.0908894   0.0425254  )
         5           H   tau(   5) = (   0.0261601   0.0951935  -0.0257541  )
         6           H   tau(   6) = (   0.0046099   0.1567570   0.0838904  )

     number of k points=     1
                       cart. coord. in units 2pi/alat
        k(    1) = (   0.0000000   0.0000000   0.0000000), wk =   2.0000000

     Dense  grid:   366144 G-vectors     FFT dimensions: ( 120, 120, 120)

     Estimated max dynamical RAM per process >      44.55 MB

     Estimated total dynamical RAM >     356.41 MB

     Check: negative core charge=   -0.000005

     Initial potential from superposition of free atoms

     starting charge      16.0000, renormalised to      16.0000

     negative rho (up, down):  6.066E-04 0.000E+00
     Starting wfcs are   12 randomized atomic wfcs

     total cpu time spent up to now is        2.4 secs

     Self-consistent Calculation

     iteration #  1     ecut=    60.00 Ry     beta= 0.50
     Davidson diagonalization with overlap
     ethr =  1.00E-02,  avg # of iterations =  2.0

     negative rho (up, down):  2.778E-04 0.000E+00

     total cpu time spent up to now is        3.6 secs

     total energy              =     -70.77381229 Ry
     estimated scf accuracy    <       0.87328812 Ry

     iteration #  2     ecut=    60.00 Ry     beta= 0.50
     Davidson diagonalization with overlap
     ethr =  5.46E-03,  avg # of iterations =  2.0

     negative rho (up, down):  1.594E-04 0.000E+00

     total cpu time spent up to now is        4.8 secs

     total energy              =     -71.01467104 Ry
     estimated scf accuracy    <       0.11668677 Ry

     iteration #  3     ecut=    60.00 Ry     beta= 0.50
     Davidson diagonalization with overlap
     ethr =  7.29E-04,  avg # of iterations =  2.0

     negative rho (up, down):  8.775E-07 0.000E+00

     total cpu time spent up to now is        5.9 secs

     total energy              =     -71.01645991 Ry
     estimated scf accuracy    <       0.01818967 Ry

     iteration #  4     ecut=    60.00 Ry     beta= 0.50
     Davidson diagonalization with overlap
     ethr =  1.14E-04,  avg # of iterations =  3.0

     negative rho (up, down):  1.469E-07 0.000E+00

     total cpu time spent up to now is        7.2 secs

     total energy              =     -71.01988333 Ry
     estimated scf accuracy    <       0.01501149 Ry

     iteration #  5     ecut=    60.00 Ry     beta= 0.50
     Davidson diagonalization with overlap
     ethr =  9.38E-05,  avg # of iterations =  2.0

     negative rho (up, down):  3.379E-08 0.000E+00

     total cpu time spent up to now is        8.4 secs

     total energy              =     -71.02112167 Ry
     estimated scf accuracy    <       0.00125892 Ry

     iteration #  6     ecut=    60.00 Ry     beta= 0.50
     Davidson diagonalization with overlap
     ethr =  7.87E-06,  avg # of iterations =  3.0

     total cpu time spent up to now is        9.6 secs

     total energy              =     -71.02130470 Ry
     estimated scf accuracy    <       0.00014856 Ry

     iteration #  7     ecut=    60.00 Ry     beta= 0.50
     Davidson diagonalization with overlap
     ethr =  9.28E-07,  avg # of iterations =  3.0

     total cpu time spent up to now is       11.0 secs

     total energy              =     -71.02135995 Ry
     estimated scf accuracy    <       0.00000463 Ry

     iteration #  8     ecut=    60.00 Ry     beta= 0.50
     Davidson diagonalization with overlap
     ethr =  2.90E-08,  avg # of iterations =  3.0

     total cpu time spent up to now is       12.3 secs

     total energy              =     -71.02135323 Ry
     estimated scf accuracy    <       0.00002666 Ry

     iteration #  9     ecut=    60.00 Ry     beta= 0.50
     Davidson diagonalization with overlap
     ethr =  2.90E-08,  avg # of iterations =  2.0

     total cpu time spent up to now is       13.6 secs

     total energy              =     -71.02135504 Ry
     estimated scf accuracy    <       0.00000196 Ry

     iteration # 10     ecut=    60.00 Ry     beta= 0.50
     Davidson diagonalization with overlap
     ethr =  1.23E-08,  avg # of iterations =  2.0

     total cpu time spent up to now is       14.8 secs

     total energy              =     -71.02135534 Ry
     estimated scf accuracy    <       0.00000014 Ry

     iteration # 11     ecut=    60.00 Ry     beta= 0.50
     Davidson diagonalization with overlap
     ethr =  8.69E-10,  avg # of iterations =  2.0

     total cpu time spent up to now is       16.0 secs

     total energy              =     -71.02135535 Ry
     estimated scf accuracy    <       0.00000005 Ry

     iteration # 12     ecut=    60.00 Ry     beta= 0.50
     Davidson diagonalization with overlap
     ethr =  3.29E-10,  avg # of iterations =  2.0

     total cpu time spent up to now is       17.2 secs

     total energy              =     -71.02135534 Ry
     estimated scf accuracy    <       0.00000002 Ry

     iteration # 13     ecut=    60.00 Ry     beta= 0.50
     Davidson diagonalization with overlap
     ethr =  1.44E-10,  avg # of iterations =  2.0

     total cpu time spent up to now is       18.3 secs

     End of self-consistent calculation

          k = 0.0000 0.0000 0.0000 ( 45812 PWs)   bands (ev):

   -25.9827 -24.3720 -13.7488 -12.3318 -10.0438  -8.4582  -7.7767  -6.3796

     highest occupied level (ev):    -6.3796

!    total energy              =     -71.02135535 Ry
     estimated scf accuracy    <          2.3E-09 Ry

     The total energy is the sum of the following terms:
     one-electron contribution =    -149.41540012 Ry
     hartree contribution      =      77.84259458 Ry
     xc contribution           =     -19.63676482 Ry
     ewald contribution        =      20.18821502 Ry

     convergence has been achieved in  13 iterations

     Forces acting on atoms (cartesian axes, Ry/au):

     atom    1 type  1   force =     0.00375848    0.00646982   -0.00339256
     atom    2 type  2   force =    -0.00036839   -0.00015922    0.00021628
     atom    3 type  2   force =    -0.00342494   -0.00640606    0.00318760
     atom    4 type  1   force =    -0.00004113    0.00022426    0.00022372
     atom    5 type  2   force =     0.00004212   -0.00002892   -0.00020892
     atom    6 type  2   force =     0.00003386   -0.00009988   -0.00002613
     The non-local contrib.  to forces
     atom    1 type  1   force =     0.75771155   -1.64930553    1.06859770
     atom    2 type  2   force =    -0.20160077    0.02507545   -0.04224973
     atom    3 type  2   force =     0.10884823    0.16939704   -0.08412176
     atom    4 type  1   force =     1.29060785    1.56858322   -0.62630343
     atom    5 type  2   force =    -0.11158794   -0.00546828    0.18522657
     atom    6 type  2   force =    -0.05223984   -0.17462242   -0.11621547
     The ionic contribution  to forces
     atom    1 type  1   force =    -4.42579317    3.51619138   -2.73963928
     atom    2 type  2   force =     2.53612276   -0.42023685    0.55586057
     atom    3 type  2   force =    -2.26501339   -3.01974780    1.44519073
     atom    4 type  1   force =     0.56715651   -3.28633920    1.85053148
     atom    5 type  2   force =     2.32222259    0.06843069   -3.29319457
     atom    6 type  2   force =     1.26530470    3.14170179    2.18125106
     The local contribution  to forces
     atom    1 type  1   force =     3.69257911   -1.90748988    1.69816798
     atom    2 type  2   force =    -2.33486463    0.39501693   -0.51343121
     atom    3 type  2   force =     2.15275812    2.84395395   -1.35791584
     atom    4 type  1   force =    -1.82038174    1.76310925   -1.24191631
     atom    5 type  2   force =    -2.21056457   -0.06297306    3.10771227
     atom    6 type  2   force =    -1.21300564   -2.96715362   -2.06509539
     The core correction contribution to forces
     atom    1 type  1   force =    -0.02071380    0.04707651   -0.03054850
     atom    2 type  2   force =     0.00000000    0.00000000    0.00000000
     atom    3 type  2   force =     0.00000000    0.00000000    0.00000000
     atom    4 type  1   force =    -0.03738305   -0.04508783    0.01786407
     atom    5 type  2   force =     0.00000000    0.00000000    0.00000000
     atom    6 type  2   force =     0.00000000    0.00000000    0.00000000
     The Hubbard contrib.    to forces
     atom    1 type  1   force =     0.00000000    0.00000000    0.00000000
     atom    2 type  2   force =     0.00000000    0.00000000    0.00000000
     atom    3 type  2   force =     0.00000000    0.00000000    0.00000000
     atom    4 type  1   force =     0.00000000    0.00000000    0.00000000
     atom    5 type  2   force =     0.00000000    0.00000000    0.00000000
     atom    6 type  2   force =     0.00000000    0.00000000    0.00000000
     The SCF correction term to forces
     atom    1 type  1   force =    -0.00000383    0.00001329   -0.00000837
     atom    2 type  2   force =    -0.00000437    0.00000119   -0.00000127
     atom    3 type  2   force =     0.00000350    0.00000670   -0.00000344
     atom    4 type  1   force =    -0.00001932   -0.00002523    0.00000999
     atom    5 type  2   force =    -0.00000657   -0.00000232    0.00000889
     atom    6 type  2   force =    -0.00000397   -0.00000967   -0.00000425

     Total force =     0.011436     Total SCF correction =     0.000041

     init_run     :      2.07s CPU      2.27s WALL (       1 calls)
     electrons    :     14.62s CPU     15.88s WALL (       1 calls)
     forces       :      0.90s CPU      0.99s WALL (       1 calls)

     Called by init_run:
     wfcinit      :      0.24s CPU      0.26s WALL (       1 calls)
     potinit      :      0.64s CPU      0.75s WALL (       1 calls)
     hinit0       :      0.99s CPU      1.03s WALL (       1 calls)

     Called by electrons:
     c_bands      :      6.05s CPU      6.34s WALL (      13 calls)
     sum_band     :      2.05s CPU      2.18s WALL (      13 calls)
     v_of_rho     :      5.32s CPU      6.08s WALL (      14 calls)
     mix_rho      :      1.31s CPU      1.44s WALL (      13 calls)

     Called by c_bands:
     init_us_2    :      0.16s CPU      0.17s WALL (      27 calls)
     init_us_2:cp :      0.16s CPU      0.17s WALL (      27 calls)
     regterg      :      5.73s CPU      6.00s WALL (      13 calls)

     Called by *egterg:
     rdiaghg      :      0.01s CPU      0.01s WALL (      43 calls)
     h_psi        :      5.60s CPU      5.86s WALL (      44 calls)
     g_psi        :      0.02s CPU      0.02s WALL (      30 calls)

     Called by h_psi:
     h_psi:calbec :      0.19s CPU      0.19s WALL (      44 calls)
     vloc_psi     :      5.23s CPU      5.49s WALL (      44 calls)
     add_vuspsi   :      0.14s CPU      0.15s WALL (      44 calls)

     General routines
     calbec       :      0.21s CPU      0.21s WALL (      48 calls)
     fft          :      3.61s CPU      4.11s WALL (     120 calls)
     ffts         :      0.33s CPU      0.38s WALL (      13 calls)
     fftw         :      4.57s CPU      4.83s WALL (     360 calls)

     Parallel routines

     PWSCF        :     17.70s CPU     19.30s WALL


   This run was terminated on:  14: 5: 2  12May2025            

=------------------------------------------------------------------------------=
   JOB DONE.
=------------------------------------------------------------------------------=
