
     Program PWSCF v.7.2 starts on 12May2025 at 13:59:22 

     This program is part of the open-source Quantum ESPRESSO suite
     for quantum simulation of materials; please cite
         "P. Giannozzi et al., J. Phys.:Condens. Matter 21 395502 (2009);
         "P. Giannozzi et al., J. Phys.:Condens. Matter 29 465901 (2017);
         "P. Giannozzi et al., J. Chem. Phys. 152 154105 (2020);
          URL http://www.quantum-espresso.org", 
     in publications or presentations arising from this work. More details at
     http://www.quantum-espresso.org/quote

     Parallel version (MPI), running on     8 processors

     MPI processes distributed on     1 nodes
     205621 MiB available memory on the printing compute node when the environment starts

     Waiting for input...
     Reading input from standard input
Warning: card &CELL ignored
Warning: card / ignored
Warning: card &FCP ignored
Warning: card / ignored
Warning: card &RISM ignored
Warning: card / ignored

     Current dimensions of program PWSCF are:
     Max number of different atomic species (ntypx) = 10
     Max number of k-points (npk) =  40000
     Max angular momentum in pseudopotentials (lmaxx) =  4

     gamma-point specific algorithms are used

     R & G space division:  proc/nbgrp/npool/nimage =       8
     Subspace diagonalization in iterative solution of the eigenvalue problem:
     a serial algorithm will be used


     Parallelization info
     --------------------
     sticks:   dense  smooth     PW     G-vecs:    dense   smooth      PW
     Min        1225    1225    305                91534    91534   11450
     Max        1228    1228    308                91540    91540   11456
     Sum        9809    9809   2449               732287   732287   91623

     Using Slab Decomposition



     bravais-lattice index     =            0
     lattice parameter (alat)  =      22.6767  a.u.
     unit-cell volume          =   11661.1211 (a.u.)^3
     number of atoms/cell      =            6
     number of atomic types    =            2
     number of electrons       =        16.00
     number of Kohn-Sham states=            8
     kinetic-energy cutoff     =      60.0000  Ry
     charge density cutoff     =     240.0000  Ry
     scf convergence threshold =      1.0E-08
     mixing beta               =       0.5000
     number of iterations used =            8  plain     mixing
     Exchange-correlation= PBE
                           (   1   4   3   4   0   0   0)

     celldm(1)=  22.676713  celldm(2)=   0.000000  celldm(3)=   0.000000
     celldm(4)=   0.000000  celldm(5)=   0.000000  celldm(6)=   0.000000

     crystal axes: (cart. coord. in units of alat)
               a(1) = (   1.000000   0.000000   0.000000 )  
               a(2) = (   0.000000   1.000000   0.000000 )  
               a(3) = (   0.000000   0.000000   1.000000 )  

     reciprocal axes: (cart. coord. in units 2 pi/alat)
               b(1) = (  1.000000  0.000000  0.000000 )  
               b(2) = (  0.000000  1.000000  0.000000 )  
               b(3) = (  0.000000  0.000000  1.000000 )  


     PseudoPot. # 1 for O  read from file:
     ./O.upf
     MD5 check sum: 9db02a5ece9d56b81b65a73f8163743d
     Pseudo is Norm-conserving + core correction, Zval =  6.0
     Generated using ONCVPSP code by D. R. Hamann
     Using radial grid of  936 points,  5 beta functions with: 
                l(1) =   0
                l(2) =   0
                l(3) =   1
                l(4) =   1
                l(5) =   2

     PseudoPot. # 2 for H  read from file:
     ./H.upf
     MD5 check sum: e96aa7e3e4a958db16958554ea960e2a
     Pseudo is Norm-conserving, Zval =  1.0
     Generated using ONCVPSP code by D. R. Hamann
     Using radial grid of 1166 points,  3 beta functions with: 
                l(1) =   0
                l(2) =   0
                l(3) =   1

     atomic species   valence    mass     pseudopotential
        O              6.00    15.99900     O ( 1.00)
        H              1.00     1.00800     H ( 1.00)

     No symmetry found



   Cartesian axes

     site n.     atom                  positions (alat units)
         1           O   tau(   1) = (  -0.2512088   0.1086414  -0.0048282  )
         2           H   tau(   2) = (  -0.1718787   0.0966176   0.0129537  )
         3           H   tau(   3) = (  -0.2882844   0.0456469   0.0276401  )
         4           O   tau(   4) = (  -0.0163116   0.0908894   0.0425254  )
         5           H   tau(   5) = (   0.0261601   0.0951935  -0.0257541  )
         6           H   tau(   6) = (   0.0046099   0.1567570   0.0838904  )

     number of k points=     1
                       cart. coord. in units 2pi/alat
        k(    1) = (   0.0000000   0.0000000   0.0000000), wk =   2.0000000

     Dense  grid:   366144 G-vectors     FFT dimensions: ( 120, 120, 120)

     Estimated max dynamical RAM per process >      44.55 MB

     Estimated total dynamical RAM >     356.41 MB

     Check: negative core charge=   -0.000005

     Initial potential from superposition of free atoms

     starting charge      16.0000, renormalised to      16.0000

     negative rho (up, down):  6.060E-04 0.000E+00
     Starting wfcs are   12 randomized atomic wfcs

     total cpu time spent up to now is        2.5 secs

     Self-consistent Calculation

     iteration #  1     ecut=    60.00 Ry     beta= 0.50
     Davidson diagonalization with overlap
     ethr =  1.00E-02,  avg # of iterations =  2.0

     negative rho (up, down):  2.776E-04 0.000E+00

     total cpu time spent up to now is        9.2 secs

     total energy              =     -70.77422644 Ry
     estimated scf accuracy    <       0.86963160 Ry

     iteration #  2     ecut=    60.00 Ry     beta= 0.50
     Davidson diagonalization with overlap
     ethr =  5.44E-03,  avg # of iterations =  2.0

     negative rho (up, down):  1.594E-04 0.000E+00

     total cpu time spent up to now is       10.4 secs

     total energy              =     -71.01443282 Ry
     estimated scf accuracy    <       0.11733645 Ry

     iteration #  3     ecut=    60.00 Ry     beta= 0.50
     Davidson diagonalization with overlap
     ethr =  7.33E-04,  avg # of iterations =  2.0

     negative rho (up, down):  9.020E-07 0.000E+00

     total cpu time spent up to now is       11.5 secs

     total energy              =     -71.01623083 Ry
     estimated scf accuracy    <       0.01825910 Ry

     iteration #  4     ecut=    60.00 Ry     beta= 0.50
     Davidson diagonalization with overlap
     ethr =  1.14E-04,  avg # of iterations =  3.0

     negative rho (up, down):  1.418E-07 0.000E+00

     total cpu time spent up to now is       12.8 secs

     total energy              =     -71.01970473 Ry
     estimated scf accuracy    <       0.01526900 Ry

     iteration #  5     ecut=    60.00 Ry     beta= 0.50
     Davidson diagonalization with overlap
     ethr =  9.54E-05,  avg # of iterations =  2.0

     negative rho (up, down):  2.725E-08 0.000E+00

     total cpu time spent up to now is       14.0 secs

     total energy              =     -71.02093754 Ry
     estimated scf accuracy    <       0.00130427 Ry

     iteration #  6     ecut=    60.00 Ry     beta= 0.50
     Davidson diagonalization with overlap
     ethr =  8.15E-06,  avg # of iterations =  3.0

     total cpu time spent up to now is       15.3 secs

     total energy              =     -71.02113356 Ry
     estimated scf accuracy    <       0.00014316 Ry

     iteration #  7     ecut=    60.00 Ry     beta= 0.50
     Davidson diagonalization with overlap
     ethr =  8.95E-07,  avg # of iterations =  3.0

     total cpu time spent up to now is       16.6 secs

     total energy              =     -71.02119081 Ry
     estimated scf accuracy    <       0.00000619 Ry

     iteration #  8     ecut=    60.00 Ry     beta= 0.50
     Davidson diagonalization with overlap
     ethr =  3.87E-08,  avg # of iterations =  3.0

     total cpu time spent up to now is       17.9 secs

     total energy              =     -71.02118328 Ry
     estimated scf accuracy    <       0.00002849 Ry

     iteration #  9     ecut=    60.00 Ry     beta= 0.50
     Davidson diagonalization with overlap
     ethr =  3.87E-08,  avg # of iterations =  2.0

     total cpu time spent up to now is       19.2 secs

     total energy              =     -71.02118495 Ry
     estimated scf accuracy    <       0.00000229 Ry

     iteration # 10     ecut=    60.00 Ry     beta= 0.50
     Davidson diagonalization with overlap
     ethr =  1.43E-08,  avg # of iterations =  2.0

     total cpu time spent up to now is       20.5 secs

     total energy              =     -71.02118533 Ry
     estimated scf accuracy    <       0.00000011 Ry

     iteration # 11     ecut=    60.00 Ry     beta= 0.50
     Davidson diagonalization with overlap
     ethr =  6.81E-10,  avg # of iterations =  2.0

     total cpu time spent up to now is       21.7 secs

     total energy              =     -71.02118534 Ry
     estimated scf accuracy    <       0.00000004 Ry

     iteration # 12     ecut=    60.00 Ry     beta= 0.50
     Davidson diagonalization with overlap
     ethr =  2.62E-10,  avg # of iterations =  2.0

     total cpu time spent up to now is       22.9 secs

     total energy              =     -71.02118534 Ry
     estimated scf accuracy    <       0.00000002 Ry

     iteration # 13     ecut=    60.00 Ry     beta= 0.50
     Davidson diagonalization with overlap
     ethr =  1.18E-10,  avg # of iterations =  2.0

     total cpu time spent up to now is       24.0 secs

     End of self-consistent calculation

          k = 0.0000 0.0000 0.0000 ( 45812 PWs)   bands (ev):

   -25.9936 -24.3317 -13.7594 -12.2610 -10.0549  -8.4755  -7.7834  -6.3673

     highest occupied level (ev):    -6.3673

!    total energy              =     -71.02118534 Ry
     estimated scf accuracy    <          1.6E-09 Ry

     The total energy is the sum of the following terms:
     one-electron contribution =    -149.20887994 Ry
     hartree contribution      =      77.73900512 Ry
     xc contribution           =     -19.62864197 Ry
     ewald contribution        =      20.07733145 Ry

     convergence has been achieved in  13 iterations

     Forces acting on atoms (cartesian axes, Ry/au):

     atom    1 type  1   force =     0.02088357    0.00454645   -0.00002553
     atom    2 type  2   force =    -0.01504218    0.00311367   -0.00364382
     atom    3 type  2   force =    -0.00531969   -0.00773914    0.00378113
     atom    4 type  1   force =    -0.00052147    0.00019448    0.00015607
     atom    5 type  2   force =     0.00001706   -0.00005037   -0.00026761
     atom    6 type  2   force =    -0.00001731   -0.00006510   -0.00000024
     The non-local contrib.  to forces
     atom    1 type  1   force =     0.76487926   -1.64339222    1.07982317
     atom    2 type  2   force =    -0.19448821    0.02395066   -0.04028312
     atom    3 type  2   force =     0.10673605    0.17005548   -0.08675723
     atom    4 type  1   force =     1.28852522    1.56889109   -0.62687260
     atom    5 type  2   force =    -0.11160988   -0.00546841    0.18523751
     atom    6 type  2   force =    -0.05225661   -0.17463617   -0.11622685
     The ionic contribution  to forces
     atom    1 type  1   force =    -4.37614004    3.50566339   -2.75277688
     atom    2 type  2   force =     2.47180287   -0.40531110    0.53200170
     atom    3 type  2   force =    -2.23043645   -3.02567483    1.48868496
     atom    4 type  1   force =     0.55079383   -3.28449923    1.84482771
     atom    5 type  2   force =     2.32025117    0.06855109   -3.29307734
     atom    6 type  2   force =     1.26372862    3.14127068    2.18033985
     The local contribution  to forces
     atom    1 type  1   force =     3.65374134   -1.90469026    1.70389472
     atom    2 type  2   force =    -2.29232278    0.38449256   -0.49539802
     atom    3 type  2   force =     2.11840667    2.84789337   -1.39818016
     atom    4 type  1   force =    -1.80252017    1.76093429   -1.23573304
     atom    5 type  2   force =    -2.20859165   -0.06311142    3.10752905
     atom    6 type  2   force =    -1.21145843   -2.96667319   -2.06414788
     The core correction contribution to forces
     atom    1 type  1   force =    -0.02155449    0.04696793   -0.03099139
     atom    2 type  2   force =     0.00000000    0.00000000    0.00000000
     atom    3 type  2   force =     0.00000000    0.00000000    0.00000000
     atom    4 type  1   force =    -0.03728094   -0.04509173    0.01788792
     atom    5 type  2   force =     0.00000000    0.00000000    0.00000000
     atom    6 type  2   force =     0.00000000    0.00000000    0.00000000
     The Hubbard contrib.    to forces
     atom    1 type  1   force =     0.00000000    0.00000000    0.00000000
     atom    2 type  2   force =     0.00000000    0.00000000    0.00000000
     atom    3 type  2   force =     0.00000000    0.00000000    0.00000000
     atom    4 type  1   force =     0.00000000    0.00000000    0.00000000
     atom    5 type  2   force =     0.00000000    0.00000000    0.00000000
     atom    6 type  2   force =     0.00000000    0.00000000    0.00000000
     The SCF correction term to forces
     atom    1 type  1   force =    -0.00001404    0.00001766   -0.00001246
     atom    2 type  2   force =    -0.00000559    0.00000161   -0.00000170
     atom    3 type  2   force =     0.00000250    0.00000691   -0.00000378
     atom    4 type  1   force =    -0.00001094   -0.00001988    0.00000876
     atom    5 type  2   force =    -0.00000412   -0.00000159    0.00000584
     atom    6 type  2   force =    -0.00000243   -0.00000636   -0.00000269

     Total force =     0.028442     Total SCF correction =     0.000038

     init_run     :      2.12s CPU      2.29s WALL (       1 calls)
     electrons    :     14.81s CPU     21.52s WALL (       1 calls)
     forces       :      0.88s CPU      0.96s WALL (       1 calls)

     Called by init_run:
     wfcinit      :      0.25s CPU      0.26s WALL (       1 calls)
     potinit      :      0.65s CPU      0.75s WALL (       1 calls)
     hinit0       :      1.00s CPU      1.04s WALL (       1 calls)

     Called by electrons:
     c_bands      :      6.15s CPU      6.42s WALL (      13 calls)
     sum_band     :      2.06s CPU      2.20s WALL (      13 calls)
     v_of_rho     :      5.36s CPU      6.09s WALL (      14 calls)
     mix_rho      :      1.34s CPU      1.45s WALL (      13 calls)

     Called by c_bands:
     init_us_2    :      0.17s CPU      0.18s WALL (      27 calls)
     init_us_2:cp :      0.17s CPU      0.18s WALL (      27 calls)
     regterg      :      5.84s CPU      6.08s WALL (      13 calls)

     Called by *egterg:
     rdiaghg      :      0.01s CPU      0.01s WALL (      43 calls)
     h_psi        :      5.70s CPU      5.95s WALL (      44 calls)
     g_psi        :      0.02s CPU      0.02s WALL (      30 calls)

     Called by h_psi:
     h_psi:calbec :      0.19s CPU      0.19s WALL (      44 calls)
     vloc_psi     :      5.33s CPU      5.57s WALL (      44 calls)
     add_vuspsi   :      0.15s CPU      0.15s WALL (      44 calls)

     General routines
     calbec       :      0.20s CPU      0.21s WALL (      48 calls)
     fft          :      3.60s CPU      4.10s WALL (     120 calls)
     ffts         :      0.34s CPU      0.39s WALL (      13 calls)
     fftw         :      4.65s CPU      4.88s WALL (     360 calls)

     Parallel routines

     PWSCF        :     17.90s CPU     24.97s WALL


   This run was terminated on:  13:59:47  12May2025            

=------------------------------------------------------------------------------=
   JOB DONE.
=------------------------------------------------------------------------------=
