
     Program PWSCF v.7.2 starts on 12May2025 at 14: 0:12 

     This program is part of the open-source Quantum ESPRESSO suite
     for quantum simulation of materials; please cite
         "P. Giannozzi et al., J. Phys.:Condens. Matter 21 395502 (2009);
         "P. Giannozzi et al., J. Phys.:Condens. Matter 29 465901 (2017);
         "P. Giannozzi et al., J. Chem. Phys. 152 154105 (2020);
          URL http://www.quantum-espresso.org", 
     in publications or presentations arising from this work. More details at
     http://www.quantum-espresso.org/quote

     Parallel version (MPI), running on     8 processors

     MPI processes distributed on     1 nodes
     205617 MiB available memory on the printing compute node when the environment starts

     Waiting for input...
     Reading input from standard input
Warning: card &CELL ignored
Warning: card / ignored
Warning: card &FCP ignored
Warning: card / ignored
Warning: card &RISM ignored
Warning: card / ignored

     Current dimensions of program PWSCF are:
     Max number of different atomic species (ntypx) = 10
     Max number of k-points (npk) =  40000
     Max angular momentum in pseudopotentials (lmaxx) =  4

     gamma-point specific algorithms are used

     R & G space division:  proc/nbgrp/npool/nimage =       8
     Subspace diagonalization in iterative solution of the eigenvalue problem:
     a serial algorithm will be used


     Parallelization info
     --------------------
     sticks:   dense  smooth     PW     G-vecs:    dense   smooth      PW
     Min        1225    1225    305                91534    91534   11450
     Max        1228    1228    308                91540    91540   11456
     Sum        9809    9809   2449               732287   732287   91623

     Using Slab Decomposition



     bravais-lattice index     =            0
     lattice parameter (alat)  =      22.6767  a.u.
     unit-cell volume          =   11661.1211 (a.u.)^3
     number of atoms/cell      =            6
     number of atomic types    =            2
     number of electrons       =        16.00
     number of Kohn-Sham states=            8
     kinetic-energy cutoff     =      60.0000  Ry
     charge density cutoff     =     240.0000  Ry
     scf convergence threshold =      1.0E-08
     mixing beta               =       0.5000
     number of iterations used =            8  plain     mixing
     Exchange-correlation= PBE
                           (   1   4   3   4   0   0   0)

     celldm(1)=  22.676713  celldm(2)=   0.000000  celldm(3)=   0.000000
     celldm(4)=   0.000000  celldm(5)=   0.000000  celldm(6)=   0.000000

     crystal axes: (cart. coord. in units of alat)
               a(1) = (   1.000000   0.000000   0.000000 )  
               a(2) = (   0.000000   1.000000   0.000000 )  
               a(3) = (   0.000000   0.000000   1.000000 )  

     reciprocal axes: (cart. coord. in units 2 pi/alat)
               b(1) = (  1.000000  0.000000  0.000000 )  
               b(2) = (  0.000000  1.000000  0.000000 )  
               b(3) = (  0.000000  0.000000  1.000000 )  


     PseudoPot. # 1 for O  read from file:
     ./O.upf
     MD5 check sum: 9db02a5ece9d56b81b65a73f8163743d
     Pseudo is Norm-conserving + core correction, Zval =  6.0
     Generated using ONCVPSP code by D. R. Hamann
     Using radial grid of  936 points,  5 beta functions with: 
                l(1) =   0
                l(2) =   0
                l(3) =   1
                l(4) =   1
                l(5) =   2

     PseudoPot. # 2 for H  read from file:
     ./H.upf
     MD5 check sum: e96aa7e3e4a958db16958554ea960e2a
     Pseudo is Norm-conserving, Zval =  1.0
     Generated using ONCVPSP code by D. R. Hamann
     Using radial grid of 1166 points,  3 beta functions with: 
                l(1) =   0
                l(2) =   0
                l(3) =   1

     atomic species   valence    mass     pseudopotential
        O              6.00    15.99900     O ( 1.00)
        H              1.00     1.00800     H ( 1.00)

     No symmetry found



   Cartesian axes

     site n.     atom                  positions (alat units)
         1           O   tau(   1) = (  -0.2503754   0.1078081  -0.0048282  )
         2           H   tau(   2) = (  -0.1718787   0.0966176   0.0129537  )
         3           H   tau(   3) = (  -0.2882844   0.0456469   0.0276401  )
         4           O   tau(   4) = (  -0.0163116   0.0908894   0.0425254  )
         5           H   tau(   5) = (   0.0261601   0.0951935  -0.0257541  )
         6           H   tau(   6) = (   0.0046099   0.1567570   0.0838904  )

     number of k points=     1
                       cart. coord. in units 2pi/alat
        k(    1) = (   0.0000000   0.0000000   0.0000000), wk =   2.0000000

     Dense  grid:   366144 G-vectors     FFT dimensions: ( 120, 120, 120)

     Estimated max dynamical RAM per process >      44.55 MB

     Estimated total dynamical RAM >     356.41 MB

     Check: negative core charge=   -0.000005

     Initial potential from superposition of free atoms

     starting charge      16.0000, renormalised to      16.0000

     negative rho (up, down):  6.071E-04 0.000E+00
     Starting wfcs are   12 randomized atomic wfcs

     total cpu time spent up to now is        2.4 secs

     Self-consistent Calculation

     iteration #  1     ecut=    60.00 Ry     beta= 0.50
     Davidson diagonalization with overlap
     ethr =  1.00E-02,  avg # of iterations =  2.0

     negative rho (up, down):  2.780E-04 0.000E+00

     total cpu time spent up to now is        3.6 secs

     total energy              =     -70.77348388 Ry
     estimated scf accuracy    <       0.87544456 Ry

     iteration #  2     ecut=    60.00 Ry     beta= 0.50
     Davidson diagonalization with overlap
     ethr =  5.47E-03,  avg # of iterations =  2.0

     negative rho (up, down):  1.594E-04 0.000E+00

     total cpu time spent up to now is        4.9 secs

     total energy              =     -71.01463686 Ry
     estimated scf accuracy    <       0.11609363 Ry

     iteration #  3     ecut=    60.00 Ry     beta= 0.50
     Davidson diagonalization with overlap
     ethr =  7.26E-04,  avg # of iterations =  2.0

     negative rho (up, down):  8.264E-07 0.000E+00

     total cpu time spent up to now is        6.0 secs

     total energy              =     -71.01679330 Ry
     estimated scf accuracy    <       0.01787074 Ry

     iteration #  4     ecut=    60.00 Ry     beta= 0.50
     Davidson diagonalization with overlap
     ethr =  1.12E-04,  avg # of iterations =  3.0

     negative rho (up, down):  1.401E-07 0.000E+00

     total cpu time spent up to now is        7.3 secs

     total energy              =     -71.02006433 Ry
     estimated scf accuracy    <       0.01332189 Ry

     iteration #  5     ecut=    60.00 Ry     beta= 0.50
     Davidson diagonalization with overlap
     ethr =  8.33E-05,  avg # of iterations =  2.0

     negative rho (up, down):  1.141E-07 0.000E+00

     total cpu time spent up to now is        8.5 secs

     total energy              =     -71.02120907 Ry
     estimated scf accuracy    <       0.00109045 Ry

     iteration #  6     ecut=    60.00 Ry     beta= 0.50
     Davidson diagonalization with overlap
     ethr =  6.82E-06,  avg # of iterations =  2.0

     total cpu time spent up to now is        9.6 secs

     total energy              =     -71.02110458 Ry
     estimated scf accuracy    <       0.00042563 Ry

     iteration #  7     ecut=    60.00 Ry     beta= 0.50
     Davidson diagonalization with overlap
     ethr =  2.66E-06,  avg # of iterations =  2.0

     total cpu time spent up to now is       10.9 secs

     total energy              =     -71.02125464 Ry
     estimated scf accuracy    <       0.00002713 Ry

     iteration #  8     ecut=    60.00 Ry     beta= 0.50
     Davidson diagonalization with overlap
     ethr =  1.70E-07,  avg # of iterations =  2.0

     total cpu time spent up to now is       12.1 secs

     total energy              =     -71.02125314 Ry
     estimated scf accuracy    <       0.00001147 Ry

     iteration #  9     ecut=    60.00 Ry     beta= 0.50
     Davidson diagonalization with overlap
     ethr =  7.17E-08,  avg # of iterations =  2.0

     total cpu time spent up to now is       13.3 secs

     total energy              =     -71.02125477 Ry
     estimated scf accuracy    <       0.00000094 Ry

     iteration # 10     ecut=    60.00 Ry     beta= 0.50
     Davidson diagonalization with overlap
     ethr =  5.86E-09,  avg # of iterations =  2.0

     total cpu time spent up to now is       14.6 secs

     total energy              =     -71.02125466 Ry
     estimated scf accuracy    <       0.00000044 Ry

     iteration # 11     ecut=    60.00 Ry     beta= 0.50
     Davidson diagonalization with overlap
     ethr =  2.72E-09,  avg # of iterations =  2.0

     total cpu time spent up to now is       15.9 secs

     total energy              =     -71.02125478 Ry
     estimated scf accuracy    <       0.00000011 Ry

     iteration # 12     ecut=    60.00 Ry     beta= 0.50
     Davidson diagonalization with overlap
     ethr =  7.00E-10,  avg # of iterations =  2.0

     total cpu time spent up to now is       16.9 secs

     End of self-consistent calculation

          k = 0.0000 0.0000 0.0000 ( 45812 PWs)   bands (ev):

   -25.9835 -24.3917 -13.7494 -12.3782 -10.0444  -8.4416  -7.7750  -6.3828

     highest occupied level (ev):    -6.3828

!    total energy              =     -71.02125479 Ry
     estimated scf accuracy    <          7.0E-10 Ry

     The total energy is the sum of the following terms:
     one-electron contribution =    -149.48085092 Ry
     hartree contribution      =      77.87502902 Ry
     xc contribution           =     -19.64179225 Ry
     ewald contribution        =      20.22635936 Ry

     convergence has been achieved in  12 iterations

     Forces acting on atoms (cartesian axes, Ry/au):

     atom    1 type  1   force =     0.00454554    0.01374666   -0.00772488
     atom    2 type  2   force =     0.00120338   -0.00163840    0.00119772
     atom    3 type  2   force =    -0.00579268   -0.01227530    0.00652931
     atom    4 type  1   force =    -0.00010317    0.00032230    0.00023543
     atom    5 type  2   force =     0.00005055   -0.00004313   -0.00020539
     atom    6 type  2   force =     0.00009638   -0.00011213   -0.00003218
     The non-local contrib.  to forces
     atom    1 type  1   force =     0.75791035   -1.62585843    1.09496174
     atom    2 type  2   force =    -0.20297360    0.02305536   -0.04236042
     atom    3 type  2   force =     0.11094967    0.17023645   -0.08792005
     atom    4 type  1   force =     1.29067671    1.56920715   -0.62628558
     atom    5 type  2   force =    -0.11158713   -0.00546274    0.18522841
     atom    6 type  2   force =    -0.05223736   -0.17461839   -0.11621453
     The ionic contribution  to forces
     atom    1 type  1   force =    -4.42143672    3.46886462   -2.79884310
     atom    2 type  2   force =     2.55059748   -0.38657036    0.55776705
     atom    3 type  2   force =    -2.28545059   -3.01577521    1.50332115
     atom    4 type  1   force =     0.56909004   -3.27831048    1.85003181
     atom    5 type  2   force =     2.32230318    0.06927428   -3.29328537
     atom    6 type  2   force =     1.26489660    3.14251716    2.18100846
     The local contribution  to forces
     atom    1 type  1   force =     3.68884404   -1.87546081    1.72726295
     atom    2 type  2   force =    -2.34640511    0.36188987   -0.51424741
     atom    3 type  2   force =     2.16872640    2.83327957   -1.40891163
     atom    4 type  1   force =    -1.82245566    1.75456111   -1.24140440
     atom    5 type  2   force =    -2.21065033   -0.06384371    3.10781897
     atom    6 type  2   force =    -1.21254629   -2.96800385   -2.06486567
     The core correction contribution to forces
     atom    1 type  1   force =    -0.02077275    0.04622326   -0.03115236
     atom    2 type  2   force =     0.00000000    0.00000000    0.00000000
     atom    3 type  2   force =     0.00000000    0.00000000    0.00000000
     atom    4 type  1   force =    -0.03739208   -0.04512852    0.01785953
     atom    5 type  2   force =     0.00000000    0.00000000    0.00000000
     atom    6 type  2   force =     0.00000000    0.00000000    0.00000000
     The Hubbard contrib.    to forces
     atom    1 type  1   force =     0.00000000    0.00000000    0.00000000
     atom    2 type  2   force =     0.00000000    0.00000000    0.00000000
     atom    3 type  2   force =     0.00000000    0.00000000    0.00000000
     atom    4 type  1   force =     0.00000000    0.00000000    0.00000000
     atom    5 type  2   force =     0.00000000    0.00000000    0.00000000
     atom    6 type  2   force =     0.00000000    0.00000000    0.00000000
     The SCF correction term to forces
     atom    1 type  1   force =     0.00001844   -0.00001037    0.00000875
     atom    2 type  2   force =     0.00000245   -0.00000167    0.00000135
     atom    3 type  2   force =    -0.00000032   -0.00000451    0.00000270
     atom    4 type  1   force =    -0.00000434    0.00000464   -0.00000308
     atom    5 type  2   force =     0.00000265    0.00000064   -0.00000453
     atom    6 type  2   force =     0.00000126    0.00000454    0.00000242

     Total force =     0.022405     Total SCF correction =     0.000026

     init_run     :      2.11s CPU      2.28s WALL (       1 calls)
     electrons    :     13.37s CPU     14.52s WALL (       1 calls)
     forces       :      0.92s CPU      1.01s WALL (       1 calls)

     Called by init_run:
     wfcinit      :      0.23s CPU      0.26s WALL (       1 calls)
     potinit      :      0.66s CPU      0.76s WALL (       1 calls)
     hinit0       :      1.00s CPU      1.03s WALL (       1 calls)

     Called by electrons:
     c_bands      :      5.45s CPU      5.68s WALL (      12 calls)
     sum_band     :      1.90s CPU      2.02s WALL (      12 calls)
     v_of_rho     :      4.97s CPU      5.68s WALL (      13 calls)
     mix_rho      :      1.18s CPU      1.29s WALL (      12 calls)

     Called by c_bands:
     init_us_2    :      0.16s CPU      0.17s WALL (      25 calls)
     init_us_2:cp :      0.16s CPU      0.17s WALL (      25 calls)
     regterg      :      5.16s CPU      5.36s WALL (      12 calls)

     Called by *egterg:
     rdiaghg      :      0.01s CPU      0.01s WALL (      37 calls)
     h_psi        :      5.06s CPU      5.27s WALL (      38 calls)
     g_psi        :      0.02s CPU      0.02s WALL (      25 calls)

     Called by h_psi:
     h_psi:calbec :      0.16s CPU      0.17s WALL (      38 calls)
     vloc_psi     :      4.74s CPU      4.94s WALL (      38 calls)
     add_vuspsi   :      0.12s CPU      0.13s WALL (      38 calls)

     General routines
     calbec       :      0.18s CPU      0.19s WALL (      42 calls)
     fft          :      3.41s CPU      3.88s WALL (     112 calls)
     ffts         :      0.30s CPU      0.34s WALL (      12 calls)
     fftw         :      4.09s CPU      4.28s WALL (     322 calls)

     Parallel routines

     PWSCF        :     16.50s CPU     17.97s WALL


   This run was terminated on:  14: 0:30  12May2025            

=------------------------------------------------------------------------------=
   JOB DONE.
=------------------------------------------------------------------------------=
