
     Program PWSCF v.7.2 starts on 12May2025 at 14: 8:55 

     This program is part of the open-source Quantum ESPRESSO suite
     for quantum simulation of materials; please cite
         "P. Giannozzi et al., J. Phys.:Condens. Matter 21 395502 (2009);
         "P. Giannozzi et al., J. Phys.:Condens. Matter 29 465901 (2017);
         "P. Giannozzi et al., J. Chem. Phys. 152 154105 (2020);
          URL http://www.quantum-espresso.org", 
     in publications or presentations arising from this work. More details at
     http://www.quantum-espresso.org/quote

     Parallel version (MPI), running on     8 processors

     MPI processes distributed on     1 nodes
     206663 MiB available memory on the printing compute node when the environment starts

     Waiting for input...
     Reading input from standard input
Warning: card &CELL ignored
Warning: card / ignored
Warning: card &FCP ignored
Warning: card / ignored
Warning: card &RISM ignored
Warning: card / ignored

     Current dimensions of program PWSCF are:
     Max number of different atomic species (ntypx) = 10
     Max number of k-points (npk) =  40000
     Max angular momentum in pseudopotentials (lmaxx) =  4

     gamma-point specific algorithms are used

     R & G space division:  proc/nbgrp/npool/nimage =       8
     Subspace diagonalization in iterative solution of the eigenvalue problem:
     a serial algorithm will be used


     Parallelization info
     --------------------
     sticks:   dense  smooth     PW     G-vecs:    dense   smooth      PW
     Min        1225    1225    305                91534    91534   11450
     Max        1228    1228    308                91540    91540   11456
     Sum        9809    9809   2449               732287   732287   91623

     Using Slab Decomposition



     bravais-lattice index     =            0
     lattice parameter (alat)  =      22.6767  a.u.
     unit-cell volume          =   11661.1211 (a.u.)^3
     number of atoms/cell      =            6
     number of atomic types    =            2
     number of electrons       =        16.00
     number of Kohn-Sham states=            8
     kinetic-energy cutoff     =      60.0000  Ry
     charge density cutoff     =     240.0000  Ry
     scf convergence threshold =      1.0E-08
     mixing beta               =       0.5000
     number of iterations used =            8  plain     mixing
     Exchange-correlation= PBE
                           (   1   4   3   4   0   0   0)

     celldm(1)=  22.676713  celldm(2)=   0.000000  celldm(3)=   0.000000
     celldm(4)=   0.000000  celldm(5)=   0.000000  celldm(6)=   0.000000

     crystal axes: (cart. coord. in units of alat)
               a(1) = (   1.000000   0.000000   0.000000 )  
               a(2) = (   0.000000   1.000000   0.000000 )  
               a(3) = (   0.000000   0.000000   1.000000 )  

     reciprocal axes: (cart. coord. in units 2 pi/alat)
               b(1) = (  1.000000  0.000000  0.000000 )  
               b(2) = (  0.000000  1.000000  0.000000 )  
               b(3) = (  0.000000  0.000000  1.000000 )  


     PseudoPot. # 1 for O  read from file:
     ./O.upf
     MD5 check sum: 9db02a5ece9d56b81b65a73f8163743d
     Pseudo is Norm-conserving + core correction, Zval =  6.0
     Generated using ONCVPSP code by D. R. Hamann
     Using radial grid of  936 points,  5 beta functions with: 
                l(1) =   0
                l(2) =   0
                l(3) =   1
                l(4) =   1
                l(5) =   2

     PseudoPot. # 2 for H  read from file:
     ./H.upf
     MD5 check sum: e96aa7e3e4a958db16958554ea960e2a
     Pseudo is Norm-conserving, Zval =  1.0
     Generated using ONCVPSP code by D. R. Hamann
     Using radial grid of 1166 points,  3 beta functions with: 
                l(1) =   0
                l(2) =   0
                l(3) =   1

     atomic species   valence    mass     pseudopotential
        O              6.00    15.99900     O ( 1.00)
        H              1.00     1.00800     H ( 1.00)

     No symmetry found



   Cartesian axes

     site n.     atom                  positions (alat units)
         1           O   tau(   1) = (  -0.2503754   0.1086414  -0.0048282  )
         2           H   tau(   2) = (  -0.1718787   0.0966176   0.0129537  )
         3           H   tau(   3) = (  -0.2882844   0.0456469   0.0276401  )
         4           O   tau(   4) = (  -0.0163116   0.0908894   0.0425254  )
         5           H   tau(   5) = (   0.0261601   0.0951935  -0.0249208  )
         6           H   tau(   6) = (   0.0046099   0.1567570   0.0838904  )

     number of k points=     1
                       cart. coord. in units 2pi/alat
        k(    1) = (   0.0000000   0.0000000   0.0000000), wk =   2.0000000

     Dense  grid:   366144 G-vectors     FFT dimensions: ( 120, 120, 120)

     Estimated max dynamical RAM per process >      44.55 MB

     Estimated total dynamical RAM >     356.41 MB

     Check: negative core charge=   -0.000005

     Initial potential from superposition of free atoms

     starting charge      16.0000, renormalised to      16.0000

     negative rho (up, down):  6.065E-04 0.000E+00
     Starting wfcs are   12 randomized atomic wfcs

     total cpu time spent up to now is        2.4 secs

     Self-consistent Calculation

     iteration #  1     ecut=    60.00 Ry     beta= 0.50
     Davidson diagonalization with overlap
     ethr =  1.00E-02,  avg # of iterations =  2.0

     negative rho (up, down):  2.777E-04 0.000E+00

     total cpu time spent up to now is        3.6 secs

     total energy              =     -70.77352900 Ry
     estimated scf accuracy    <       0.87453927 Ry

     iteration #  2     ecut=    60.00 Ry     beta= 0.50
     Davidson diagonalization with overlap
     ethr =  5.47E-03,  avg # of iterations =  2.0

     negative rho (up, down):  1.593E-04 0.000E+00

     total cpu time spent up to now is        4.8 secs

     total energy              =     -71.01461403 Ry
     estimated scf accuracy    <       0.11647475 Ry

     iteration #  3     ecut=    60.00 Ry     beta= 0.50
     Davidson diagonalization with overlap
     ethr =  7.28E-04,  avg # of iterations =  2.0

     negative rho (up, down):  9.962E-07 0.000E+00

     total cpu time spent up to now is        5.9 secs

     total energy              =     -71.01635955 Ry
     estimated scf accuracy    <       0.01818299 Ry

     iteration #  4     ecut=    60.00 Ry     beta= 0.50
     Davidson diagonalization with overlap
     ethr =  1.14E-04,  avg # of iterations =  3.0

     negative rho (up, down):  1.387E-07 0.000E+00

     total cpu time spent up to now is        7.3 secs

     total energy              =     -71.01992829 Ry
     estimated scf accuracy    <       0.01454908 Ry

     iteration #  5     ecut=    60.00 Ry     beta= 0.50
     Davidson diagonalization with overlap
     ethr =  9.09E-05,  avg # of iterations =  2.0

     negative rho (up, down):  5.885E-08 0.000E+00

     total cpu time spent up to now is        8.4 secs

     total energy              =     -71.02110241 Ry
     estimated scf accuracy    <       0.00138833 Ry

     iteration #  6     ecut=    60.00 Ry     beta= 0.50
     Davidson diagonalization with overlap
     ethr =  8.68E-06,  avg # of iterations =  2.0

     total cpu time spent up to now is        9.6 secs

     total energy              =     -71.02109375 Ry
     estimated scf accuracy    <       0.00043701 Ry

     iteration #  7     ecut=    60.00 Ry     beta= 0.50
     Davidson diagonalization with overlap
     ethr =  2.73E-06,  avg # of iterations =  2.0

     total cpu time spent up to now is       10.9 secs

     total energy              =     -71.02124605 Ry
     estimated scf accuracy    <       0.00001640 Ry

     iteration #  8     ecut=    60.00 Ry     beta= 0.50
     Davidson diagonalization with overlap
     ethr =  1.02E-07,  avg # of iterations =  3.0

     total cpu time spent up to now is       12.1 secs

     total energy              =     -71.02124916 Ry
     estimated scf accuracy    <       0.00002524 Ry

     iteration #  9     ecut=    60.00 Ry     beta= 0.50
     Davidson diagonalization with overlap
     ethr =  1.02E-07,  avg # of iterations =  1.0

     total cpu time spent up to now is       13.2 secs

     total energy              =     -71.02124084 Ry
     estimated scf accuracy    <       0.00001713 Ry

     iteration # 10     ecut=    60.00 Ry     beta= 0.50
     Davidson diagonalization with overlap
     ethr =  1.02E-07,  avg # of iterations =  2.0

     total cpu time spent up to now is       14.5 secs

     total energy              =     -71.02124470 Ry
     estimated scf accuracy    <       0.00000018 Ry

     iteration # 11     ecut=    60.00 Ry     beta= 0.50
     Davidson diagonalization with overlap
     ethr =  1.15E-09,  avg # of iterations =  2.0

     total cpu time spent up to now is       15.7 secs

     total energy              =     -71.02124472 Ry
     estimated scf accuracy    <       0.00000001 Ry

     iteration # 12     ecut=    60.00 Ry     beta= 0.50
     Davidson diagonalization with overlap
     ethr =  7.26E-11,  avg # of iterations =  3.0

     total cpu time spent up to now is       17.1 secs

     total energy              =     -71.02124472 Ry
     estimated scf accuracy    <       0.00000002 Ry

     iteration # 13     ecut=    60.00 Ry     beta= 0.50
     Davidson diagonalization with overlap
     ethr =  7.26E-11,  avg # of iterations =  2.0

     total cpu time spent up to now is       18.2 secs

     End of self-consistent calculation

          k = 0.0000 0.0000 0.0000 ( 45812 PWs)   bands (ev):

   -26.0335 -24.3541 -13.7810 -12.3075 -10.0600  -8.4652  -7.7865  -6.3768

     highest occupied level (ev):    -6.3768

!    total energy              =     -71.02124472 Ry
     estimated scf accuracy    <          5.1E-10 Ry

     The total energy is the sum of the following terms:
     one-electron contribution =    -149.47224935 Ry
     hartree contribution      =      77.86878884 Ry
     xc contribution           =     -19.64112882 Ry
     ewald contribution        =      20.22334460 Ry

     convergence has been achieved in  13 iterations

     Forces acting on atoms (cartesian axes, Ry/au):

     atom    1 type  1   force =     0.00015041    0.00016242   -0.00015942
     atom    2 type  2   force =    -0.00015468    0.00005812    0.00006546
     atom    3 type  2   force =    -0.00007037   -0.00031793    0.00007270
     atom    4 type  1   force =    -0.00783329    0.00054923    0.01403494
     atom    5 type  2   force =     0.00852670   -0.00005256   -0.01475689
     atom    6 type  2   force =    -0.00061877   -0.00039929    0.00074320
     The non-local contrib.  to forces
     atom    1 type  1   force =     0.76303681   -1.63899369    1.08198853
     atom    2 type  2   force =    -0.20160674    0.02516755   -0.04222741
     atom    3 type  2   force =     0.10681982    0.16619225   -0.08473564
     atom    4 type  1   force =     1.30214697    1.56763946   -0.62804086
     atom    5 type  2   force =    -0.11630030   -0.00597260    0.19043773
     atom    6 type  2   force =    -0.05225978   -0.17466659   -0.11615209
     The ionic contribution  to forces
     atom    1 type  1   force =    -4.44734570    3.48071206   -2.76003486
     atom    2 type  2   force =     2.53543077   -0.42044202    0.55404023
     atom    3 type  2   force =    -2.24337951   -2.98409529    1.46716924
     atom    4 type  1   force =     0.51654104   -3.29145872    1.89312843
     atom    5 type  2   force =     2.37408802    0.07160275   -3.33739280
     atom    6 type  2   force =     1.26466537    3.14368121    2.18308976
     The local contribution  to forces
     atom    1 type  1   force =     3.70518218   -1.88858979    1.70892113
     atom    2 type  2   force =    -2.33396012    0.39534272   -0.51178213
     atom    3 type  2   force =     2.13650690    2.81759420   -1.38239516
     atom    4 type  1   force =    -1.78922038    1.76933353   -1.26837999
     atom    5 type  2   force =    -2.24923939   -0.06567183    3.13215984
     atom    6 type  2   force =    -1.21300385   -2.96939989   -2.06622723
     The core correction contribution to forces
     atom    1 type  1   force =    -0.02070924    0.04704680   -0.03107125
     atom    2 type  2   force =     0.00000000    0.00000000    0.00000000
     atom    3 type  2   force =     0.00000000    0.00000000    0.00000000
     atom    4 type  1   force =    -0.03727264   -0.04494613    0.01729017
     atom    5 type  2   force =     0.00000000    0.00000000    0.00000000
     atom    6 type  2   force =     0.00000000    0.00000000    0.00000000
     The Hubbard contrib.    to forces
     atom    1 type  1   force =     0.00000000    0.00000000    0.00000000
     atom    2 type  2   force =     0.00000000    0.00000000    0.00000000
     atom    3 type  2   force =     0.00000000    0.00000000    0.00000000
     atom    4 type  1   force =     0.00000000    0.00000000    0.00000000
     atom    5 type  2   force =     0.00000000    0.00000000    0.00000000
     atom    6 type  2   force =     0.00000000    0.00000000    0.00000000
     The SCF correction term to forces
     atom    1 type  1   force =     0.00000521   -0.00000298    0.00000242
     atom    2 type  2   force =     0.00000027   -0.00000015    0.00000015
     atom    3 type  2   force =     0.00000127    0.00000088   -0.00000036
     atom    4 type  1   force =    -0.00000943   -0.00000893    0.00000257
     atom    5 type  2   force =    -0.00000278   -0.00000090    0.00000372
     atom    6 type  2   force =    -0.00000165   -0.00000403   -0.00000185

     Total force =     0.023461     Total SCF correction =     0.000016

     init_run     :      2.14s CPU      2.30s WALL (       1 calls)
     electrons    :     14.51s CPU     15.77s WALL (       1 calls)
     forces       :      0.88s CPU      0.97s WALL (       1 calls)

     Called by init_run:
     wfcinit      :      0.24s CPU      0.26s WALL (       1 calls)
     potinit      :      0.67s CPU      0.75s WALL (       1 calls)
     hinit0       :      1.02s CPU      1.05s WALL (       1 calls)

     Called by electrons:
     c_bands      :      5.94s CPU      6.20s WALL (      13 calls)
     sum_band     :      2.05s CPU      2.19s WALL (      13 calls)
     v_of_rho     :      5.32s CPU      6.10s WALL (      14 calls)
     mix_rho      :      1.31s CPU      1.43s WALL (      13 calls)

     Called by c_bands:
     init_us_2    :      0.17s CPU      0.18s WALL (      27 calls)
     init_us_2:cp :      0.17s CPU      0.18s WALL (      27 calls)
     regterg      :      5.62s CPU      5.87s WALL (      13 calls)

     Called by *egterg:
     rdiaghg      :      0.01s CPU      0.01s WALL (      41 calls)
     h_psi        :      5.49s CPU      5.75s WALL (      42 calls)
     g_psi        :      0.02s CPU      0.02s WALL (      28 calls)

     Called by h_psi:
     h_psi:calbec :      0.20s CPU      0.21s WALL (      42 calls)
     vloc_psi     :      5.12s CPU      5.36s WALL (      42 calls)
     add_vuspsi   :      0.14s CPU      0.14s WALL (      42 calls)

     General routines
     calbec       :      0.22s CPU      0.23s WALL (      46 calls)
     fft          :      3.63s CPU      4.14s WALL (     120 calls)
     ffts         :      0.35s CPU      0.38s WALL (      13 calls)
     fftw         :      4.49s CPU      4.75s WALL (     354 calls)

     Parallel routines

     PWSCF        :     17.63s CPU     19.19s WALL


   This run was terminated on:  14: 9:15  12May2025            

=------------------------------------------------------------------------------=
   JOB DONE.
=------------------------------------------------------------------------------=
