
     Program PWSCF v.7.2 starts on 12May2025 at 14: 9:54 

     This program is part of the open-source Quantum ESPRESSO suite
     for quantum simulation of materials; please cite
         "P. Giannozzi et al., J. Phys.:Condens. Matter 21 395502 (2009);
         "P. Giannozzi et al., J. Phys.:Condens. Matter 29 465901 (2017);
         "P. Giannozzi et al., J. Chem. Phys. 152 154105 (2020);
          URL http://www.quantum-espresso.org", 
     in publications or presentations arising from this work. More details at
     http://www.quantum-espresso.org/quote

     Parallel version (MPI), running on     8 processors

     MPI processes distributed on     1 nodes
     206655 MiB available memory on the printing compute node when the environment starts

     Waiting for input...
     Reading input from standard input
Warning: card &CELL ignored
Warning: card / ignored
Warning: card &FCP ignored
Warning: card / ignored
Warning: card &RISM ignored
Warning: card / ignored

     Current dimensions of program PWSCF are:
     Max number of different atomic species (ntypx) = 10
     Max number of k-points (npk) =  40000
     Max angular momentum in pseudopotentials (lmaxx) =  4

     gamma-point specific algorithms are used

     R & G space division:  proc/nbgrp/npool/nimage =       8
     Subspace diagonalization in iterative solution of the eigenvalue problem:
     a serial algorithm will be used


     Parallelization info
     --------------------
     sticks:   dense  smooth     PW     G-vecs:    dense   smooth      PW
     Min        1225    1225    305                91534    91534   11450
     Max        1228    1228    308                91540    91540   11456
     Sum        9809    9809   2449               732287   732287   91623

     Using Slab Decomposition



     bravais-lattice index     =            0
     lattice parameter (alat)  =      22.6767  a.u.
     unit-cell volume          =   11661.1211 (a.u.)^3
     number of atoms/cell      =            6
     number of atomic types    =            2
     number of electrons       =        16.00
     number of Kohn-Sham states=            8
     kinetic-energy cutoff     =      60.0000  Ry
     charge density cutoff     =     240.0000  Ry
     scf convergence threshold =      1.0E-08
     mixing beta               =       0.5000
     number of iterations used =            8  plain     mixing
     Exchange-correlation= PBE
                           (   1   4   3   4   0   0   0)

     celldm(1)=  22.676713  celldm(2)=   0.000000  celldm(3)=   0.000000
     celldm(4)=   0.000000  celldm(5)=   0.000000  celldm(6)=   0.000000

     crystal axes: (cart. coord. in units of alat)
               a(1) = (   1.000000   0.000000   0.000000 )  
               a(2) = (   0.000000   1.000000   0.000000 )  
               a(3) = (   0.000000   0.000000   1.000000 )  

     reciprocal axes: (cart. coord. in units 2 pi/alat)
               b(1) = (  1.000000  0.000000  0.000000 )  
               b(2) = (  0.000000  1.000000  0.000000 )  
               b(3) = (  0.000000  0.000000  1.000000 )  


     PseudoPot. # 1 for O  read from file:
     ./O.upf
     MD5 check sum: 9db02a5ece9d56b81b65a73f8163743d
     Pseudo is Norm-conserving + core correction, Zval =  6.0
     Generated using ONCVPSP code by D. R. Hamann
     Using radial grid of  936 points,  5 beta functions with: 
                l(1) =   0
                l(2) =   0
                l(3) =   1
                l(4) =   1
                l(5) =   2

     PseudoPot. # 2 for H  read from file:
     ./H.upf
     MD5 check sum: e96aa7e3e4a958db16958554ea960e2a
     Pseudo is Norm-conserving, Zval =  1.0
     Generated using ONCVPSP code by D. R. Hamann
     Using radial grid of 1166 points,  3 beta functions with: 
                l(1) =   0
                l(2) =   0
                l(3) =   1

     atomic species   valence    mass     pseudopotential
        O              6.00    15.99900     O ( 1.00)
        H              1.00     1.00800     H ( 1.00)

     No symmetry found



   Cartesian axes

     site n.     atom                  positions (alat units)
         1           O   tau(   1) = (  -0.2503754   0.1086414  -0.0048282  )
         2           H   tau(   2) = (  -0.1718787   0.0966176   0.0129537  )
         3           H   tau(   3) = (  -0.2882844   0.0456469   0.0276401  )
         4           O   tau(   4) = (  -0.0163116   0.0908894   0.0425254  )
         5           H   tau(   5) = (   0.0261601   0.0951935  -0.0257541  )
         6           H   tau(   6) = (   0.0046099   0.1559237   0.0838904  )

     number of k points=     1
                       cart. coord. in units 2pi/alat
        k(    1) = (   0.0000000   0.0000000   0.0000000), wk =   2.0000000

     Dense  grid:   366144 G-vectors     FFT dimensions: ( 120, 120, 120)

     Estimated max dynamical RAM per process >      44.55 MB

     Estimated total dynamical RAM >     356.41 MB

     Check: negative core charge=   -0.000005

     Initial potential from superposition of free atoms

     starting charge      16.0000, renormalised to      16.0000

     negative rho (up, down):  6.068E-04 0.000E+00
     Starting wfcs are   12 randomized atomic wfcs

     total cpu time spent up to now is        2.4 secs

     Self-consistent Calculation

     iteration #  1     ecut=    60.00 Ry     beta= 0.50
     Davidson diagonalization with overlap
     ethr =  1.00E-02,  avg # of iterations =  2.0

     negative rho (up, down):  2.779E-04 0.000E+00

     total cpu time spent up to now is        3.6 secs

     total energy              =     -70.77351218 Ry
     estimated scf accuracy    <       0.87466110 Ry

     iteration #  2     ecut=    60.00 Ry     beta= 0.50
     Davidson diagonalization with overlap
     ethr =  5.47E-03,  avg # of iterations =  2.0

     negative rho (up, down):  1.594E-04 0.000E+00

     total cpu time spent up to now is        4.8 secs

     total energy              =     -71.01463007 Ry
     estimated scf accuracy    <       0.11646042 Ry

     iteration #  3     ecut=    60.00 Ry     beta= 0.50
     Davidson diagonalization with overlap
     ethr =  7.28E-04,  avg # of iterations =  2.0

     negative rho (up, down):  9.813E-07 0.000E+00

     total cpu time spent up to now is        6.0 secs

     total energy              =     -71.01638725 Ry
     estimated scf accuracy    <       0.01817345 Ry

     iteration #  4     ecut=    60.00 Ry     beta= 0.50
     Davidson diagonalization with overlap
     ethr =  1.14E-04,  avg # of iterations =  3.0

     negative rho (up, down):  1.393E-07 0.000E+00

     total cpu time spent up to now is        7.3 secs

     total energy              =     -71.01994937 Ry
     estimated scf accuracy    <       0.01451725 Ry

     iteration #  5     ecut=    60.00 Ry     beta= 0.50
     Davidson diagonalization with overlap
     ethr =  9.07E-05,  avg # of iterations =  2.0

     negative rho (up, down):  5.940E-08 0.000E+00

     total cpu time spent up to now is        8.4 secs

     total energy              =     -71.02112511 Ry
     estimated scf accuracy    <       0.00138064 Ry

     iteration #  6     ecut=    60.00 Ry     beta= 0.50
     Davidson diagonalization with overlap
     ethr =  8.63E-06,  avg # of iterations =  2.0

     total cpu time spent up to now is        9.6 secs

     total energy              =     -71.02111608 Ry
     estimated scf accuracy    <       0.00043554 Ry

     iteration #  7     ecut=    60.00 Ry     beta= 0.50
     Davidson diagonalization with overlap
     ethr =  2.72E-06,  avg # of iterations =  2.0

     total cpu time spent up to now is       10.9 secs

     total energy              =     -71.02126794 Ry
     estimated scf accuracy    <       0.00001652 Ry

     iteration #  8     ecut=    60.00 Ry     beta= 0.50
     Davidson diagonalization with overlap
     ethr =  1.03E-07,  avg # of iterations =  3.0

     total cpu time spent up to now is       12.1 secs

     total energy              =     -71.02127097 Ry
     estimated scf accuracy    <       0.00002508 Ry

     iteration #  9     ecut=    60.00 Ry     beta= 0.50
     Davidson diagonalization with overlap
     ethr =  1.03E-07,  avg # of iterations =  1.0

     total cpu time spent up to now is       13.2 secs

     total energy              =     -71.02126279 Ry
     estimated scf accuracy    <       0.00001688 Ry

     iteration # 10     ecut=    60.00 Ry     beta= 0.50
     Davidson diagonalization with overlap
     ethr =  1.03E-07,  avg # of iterations =  2.0

     total cpu time spent up to now is       14.5 secs

     total energy              =     -71.02126660 Ry
     estimated scf accuracy    <       0.00000018 Ry

     iteration # 11     ecut=    60.00 Ry     beta= 0.50
     Davidson diagonalization with overlap
     ethr =  1.15E-09,  avg # of iterations =  2.0

     total cpu time spent up to now is       15.7 secs

     total energy              =     -71.02126662 Ry
     estimated scf accuracy    <       0.00000001 Ry

     iteration # 12     ecut=    60.00 Ry     beta= 0.50
     Davidson diagonalization with overlap
     ethr =  7.20E-11,  avg # of iterations =  3.0

     total cpu time spent up to now is       17.1 secs

     total energy              =     -71.02126662 Ry
     estimated scf accuracy    <       0.00000002 Ry

     iteration # 13     ecut=    60.00 Ry     beta= 0.50
     Davidson diagonalization with overlap
     ethr =  7.20E-11,  avg # of iterations =  2.0

     total cpu time spent up to now is       18.2 secs

     End of self-consistent calculation

          k = 0.0000 0.0000 0.0000 ( 45812 PWs)   bands (ev):

   -26.0255 -24.3538 -13.7963 -12.3068 -10.0443  -8.4637  -7.7849  -6.3766

     highest occupied level (ev):    -6.3766

!    total energy              =     -71.02126662 Ry
     estimated scf accuracy    <          4.0E-10 Ry

     The total energy is the sum of the following terms:
     one-electron contribution =    -149.46856359 Ry
     hartree contribution      =      77.86767611 Ry
     xc contribution           =     -19.64078433 Ry
     ewald contribution        =      20.22040519 Ry

     convergence has been achieved in  13 iterations

     Forces acting on atoms (cartesian axes, Ry/au):

     atom    1 type  1   force =     0.00012935    0.00014878   -0.00019308
     atom    2 type  2   force =    -0.00012594    0.00008170    0.00013846
     atom    3 type  2   force =    -0.00006931   -0.00031909    0.00007114
     atom    4 type  1   force =    -0.00394106   -0.01260197   -0.00829478
     atom    5 type  2   force =    -0.00015701   -0.00008057    0.00010471
     atom    6 type  2   force =     0.00416397    0.01277116    0.00817355
     The non-local contrib.  to forces
     atom    1 type  1   force =     0.76298148   -1.63911896    1.08173278
     atom    2 type  2   force =    -0.20160212    0.02516549   -0.04223030
     atom    3 type  2   force =     0.10681954    0.16619081   -0.08473706
     atom    4 type  1   force =     1.29747963    1.57000622   -0.61373472
     atom    5 type  2   force =    -0.11154304   -0.00544052    0.18527947
     atom    6 type  2   force =    -0.05439624   -0.17925943   -0.12067232
     The ionic contribution  to forces
     atom    1 type  1   force =    -4.44759849    3.48150381   -2.75935055
     atom    2 type  2   force =     2.53532651   -0.42015653    0.55425076
     atom    3 type  2   force =    -2.24342798   -2.98403357    1.46723232
     atom    4 type  1   force =     0.54323289   -3.32401004    1.80207613
     atom    5 type  2   force =     2.32256069    0.06889435   -3.29521897
     atom    6 type  2   force =     1.28990638    3.17780198    2.23101032
     The local contribution  to forces
     atom    1 type  1   force =     3.70546679   -1.88927267    1.70844728
     atom    2 type  2   force =    -2.33383192    0.39508274   -0.51191729
     atom    3 type  2   force =     2.13655705    2.81753300   -1.38245903
     atom    4 type  1   force =    -1.80724809    1.78596300   -1.21451649
     atom    5 type  2   force =    -2.21115343   -0.06352396    3.11000599
     atom    6 type  2   force =    -1.23132587   -2.98575827   -2.10219785
     The core correction contribution to forces
     atom    1 type  1   force =    -0.02070671    0.04705032   -0.03106082
     atom    2 type  2   force =     0.00000000    0.00000000    0.00000000
     atom    3 type  2   force =     0.00000000    0.00000000    0.00000000
     atom    4 type  1   force =    -0.03737915   -0.04454517    0.01784293
     atom    5 type  2   force =     0.00000000    0.00000000    0.00000000
     atom    6 type  2   force =     0.00000000    0.00000000    0.00000000
     The Hubbard contrib.    to forces
     atom    1 type  1   force =     0.00000000    0.00000000    0.00000000
     atom    2 type  2   force =     0.00000000    0.00000000    0.00000000
     atom    3 type  2   force =     0.00000000    0.00000000    0.00000000
     atom    4 type  1   force =     0.00000000    0.00000000    0.00000000
     atom    5 type  2   force =     0.00000000    0.00000000    0.00000000
     atom    6 type  2   force =     0.00000000    0.00000000    0.00000000
     The SCF correction term to forces
     atom    1 type  1   force =     0.00000522   -0.00000396    0.00000321
     atom    2 type  2   force =     0.00000053   -0.00000024    0.00000027
     atom    3 type  2   force =     0.00000102    0.00000044   -0.00000011
     atom    4 type  1   force =    -0.00000739   -0.00000621    0.00000235
     atom    5 type  2   force =    -0.00000228   -0.00000068    0.00000319
     atom    6 type  2   force =    -0.00000136   -0.00000337   -0.00000162

     Total force =     0.022151     Total SCF correction =     0.000014

     init_run     :      2.13s CPU      2.30s WALL (       1 calls)
     electrons    :     14.57s CPU     15.76s WALL (       1 calls)
     forces       :      0.92s CPU      1.01s WALL (       1 calls)

     Called by init_run:
     wfcinit      :      0.23s CPU      0.26s WALL (       1 calls)
     potinit      :      0.69s CPU      0.79s WALL (       1 calls)
     hinit0       :      0.99s CPU      1.02s WALL (       1 calls)

     Called by electrons:
     c_bands      :      5.95s CPU      6.21s WALL (      13 calls)
     sum_band     :      2.03s CPU      2.16s WALL (      13 calls)
     v_of_rho     :      5.36s CPU      6.09s WALL (      14 calls)
     mix_rho      :      1.31s CPU      1.42s WALL (      13 calls)

     Called by c_bands:
     init_us_2    :      0.17s CPU      0.18s WALL (      27 calls)
     init_us_2:cp :      0.17s CPU      0.18s WALL (      27 calls)
     regterg      :      5.63s CPU      5.87s WALL (      13 calls)

     Called by *egterg:
     rdiaghg      :      0.01s CPU      0.01s WALL (      41 calls)
     h_psi        :      5.50s CPU      5.76s WALL (      42 calls)
     g_psi        :      0.02s CPU      0.02s WALL (      28 calls)

     Called by h_psi:
     h_psi:calbec :      0.20s CPU      0.21s WALL (      42 calls)
     vloc_psi     :      5.13s CPU      5.37s WALL (      42 calls)
     add_vuspsi   :      0.14s CPU      0.15s WALL (      42 calls)

     General routines
     calbec       :      0.21s CPU      0.22s WALL (      46 calls)
     fft          :      3.58s CPU      4.07s WALL (     120 calls)
     ffts         :      0.35s CPU      0.39s WALL (      13 calls)
     fftw         :      4.61s CPU      4.84s WALL (     354 calls)

     Parallel routines

     PWSCF        :     17.72s CPU     19.23s WALL


   This run was terminated on:  14:10:13  12May2025            

=------------------------------------------------------------------------------=
   JOB DONE.
=------------------------------------------------------------------------------=
