
     Program PWSCF v.7.2 starts on 12May2025 at 14: 2:48 

     This program is part of the open-source Quantum ESPRESSO suite
     for quantum simulation of materials; please cite
         "P. Giannozzi et al., J. Phys.:Condens. Matter 21 395502 (2009);
         "P. Giannozzi et al., J. Phys.:Condens. Matter 29 465901 (2017);
         "P. Giannozzi et al., J. Chem. Phys. 152 154105 (2020);
          URL http://www.quantum-espresso.org", 
     in publications or presentations arising from this work. More details at
     http://www.quantum-espresso.org/quote

     Parallel version (MPI), running on     8 processors

     MPI processes distributed on     1 nodes
     205568 MiB available memory on the printing compute node when the environment starts

     Waiting for input...
     Reading input from standard input
Warning: card &CELL ignored
Warning: card / ignored
Warning: card &FCP ignored
Warning: card / ignored
Warning: card &RISM ignored
Warning: card / ignored

     Current dimensions of program PWSCF are:
     Max number of different atomic species (ntypx) = 10
     Max number of k-points (npk) =  40000
     Max angular momentum in pseudopotentials (lmaxx) =  4

     gamma-point specific algorithms are used

     R & G space division:  proc/nbgrp/npool/nimage =       8
     Subspace diagonalization in iterative solution of the eigenvalue problem:
     a serial algorithm will be used


     Parallelization info
     --------------------
     sticks:   dense  smooth     PW     G-vecs:    dense   smooth      PW
     Min        1225    1225    305                91534    91534   11450
     Max        1228    1228    308                91540    91540   11456
     Sum        9809    9809   2449               732287   732287   91623

     Using Slab Decomposition



     bravais-lattice index     =            0
     lattice parameter (alat)  =      22.6767  a.u.
     unit-cell volume          =   11661.1211 (a.u.)^3
     number of atoms/cell      =            6
     number of atomic types    =            2
     number of electrons       =        16.00
     number of Kohn-Sham states=            8
     kinetic-energy cutoff     =      60.0000  Ry
     charge density cutoff     =     240.0000  Ry
     scf convergence threshold =      1.0E-08
     mixing beta               =       0.5000
     number of iterations used =            8  plain     mixing
     Exchange-correlation= PBE
                           (   1   4   3   4   0   0   0)

     celldm(1)=  22.676713  celldm(2)=   0.000000  celldm(3)=   0.000000
     celldm(4)=   0.000000  celldm(5)=   0.000000  celldm(6)=   0.000000

     crystal axes: (cart. coord. in units of alat)
               a(1) = (   1.000000   0.000000   0.000000 )  
               a(2) = (   0.000000   1.000000   0.000000 )  
               a(3) = (   0.000000   0.000000   1.000000 )  

     reciprocal axes: (cart. coord. in units 2 pi/alat)
               b(1) = (  1.000000  0.000000  0.000000 )  
               b(2) = (  0.000000  1.000000  0.000000 )  
               b(3) = (  0.000000  0.000000  1.000000 )  


     PseudoPot. # 1 for O  read from file:
     ./O.upf
     MD5 check sum: 9db02a5ece9d56b81b65a73f8163743d
     Pseudo is Norm-conserving + core correction, Zval =  6.0
     Generated using ONCVPSP code by D. R. Hamann
     Using radial grid of  936 points,  5 beta functions with: 
                l(1) =   0
                l(2) =   0
                l(3) =   1
                l(4) =   1
                l(5) =   2

     PseudoPot. # 2 for H  read from file:
     ./H.upf
     MD5 check sum: e96aa7e3e4a958db16958554ea960e2a
     Pseudo is Norm-conserving, Zval =  1.0
     Generated using ONCVPSP code by D. R. Hamann
     Using radial grid of 1166 points,  3 beta functions with: 
                l(1) =   0
                l(2) =   0
                l(3) =   1

     atomic species   valence    mass     pseudopotential
        O              6.00    15.99900     O ( 1.00)
        H              1.00     1.00800     H ( 1.00)

     No symmetry found



   Cartesian axes

     site n.     atom                  positions (alat units)
         1           O   tau(   1) = (  -0.2503754   0.1086414  -0.0048282  )
         2           H   tau(   2) = (  -0.1718787   0.0966176   0.0121204  )
         3           H   tau(   3) = (  -0.2882844   0.0456469   0.0276401  )
         4           O   tau(   4) = (  -0.0163116   0.0908894   0.0425254  )
         5           H   tau(   5) = (   0.0261601   0.0951935  -0.0257541  )
         6           H   tau(   6) = (   0.0046099   0.1567570   0.0838904  )

     number of k points=     1
                       cart. coord. in units 2pi/alat
        k(    1) = (   0.0000000   0.0000000   0.0000000), wk =   2.0000000

     Dense  grid:   366144 G-vectors     FFT dimensions: ( 120, 120, 120)

     Estimated max dynamical RAM per process >      44.55 MB

     Estimated total dynamical RAM >     356.41 MB

     Check: negative core charge=   -0.000005

     Initial potential from superposition of free atoms

     starting charge      16.0000, renormalised to      16.0000

     negative rho (up, down):  6.064E-04 0.000E+00
     Starting wfcs are   12 randomized atomic wfcs

     total cpu time spent up to now is        2.4 secs

     Self-consistent Calculation

     iteration #  1     ecut=    60.00 Ry     beta= 0.50
     Davidson diagonalization with overlap
     ethr =  1.00E-02,  avg # of iterations =  2.0

     negative rho (up, down):  2.777E-04 0.000E+00

     total cpu time spent up to now is        3.7 secs

     total energy              =     -70.77370293 Ry
     estimated scf accuracy    <       0.87296607 Ry

     iteration #  2     ecut=    60.00 Ry     beta= 0.50
     Davidson diagonalization with overlap
     ethr =  5.46E-03,  avg # of iterations =  2.0

     negative rho (up, down):  1.594E-04 0.000E+00

     total cpu time spent up to now is        4.9 secs

     total energy              =     -71.01463482 Ry
     estimated scf accuracy    <       0.11706920 Ry

     iteration #  3     ecut=    60.00 Ry     beta= 0.50
     Davidson diagonalization with overlap
     ethr =  7.32E-04,  avg # of iterations =  2.0

     negative rho (up, down):  8.949E-07 0.000E+00

     total cpu time spent up to now is        6.0 secs

     total energy              =     -71.01645159 Ry
     estimated scf accuracy    <       0.01822264 Ry

     iteration #  4     ecut=    60.00 Ry     beta= 0.50
     Davidson diagonalization with overlap
     ethr =  1.14E-04,  avg # of iterations =  3.0

     negative rho (up, down):  1.420E-07 0.000E+00

     total cpu time spent up to now is        7.3 secs

     total energy              =     -71.01989440 Ry
     estimated scf accuracy    <       0.01510668 Ry

     iteration #  5     ecut=    60.00 Ry     beta= 0.50
     Davidson diagonalization with overlap
     ethr =  9.44E-05,  avg # of iterations =  2.0

     negative rho (up, down):  3.077E-08 0.000E+00

     total cpu time spent up to now is        8.5 secs

     total energy              =     -71.02113201 Ry
     estimated scf accuracy    <       0.00127657 Ry

     iteration #  6     ecut=    60.00 Ry     beta= 0.50
     Davidson diagonalization with overlap
     ethr =  7.98E-06,  avg # of iterations =  3.0

     total cpu time spent up to now is        9.7 secs

     total energy              =     -71.02131843 Ry
     estimated scf accuracy    <       0.00014858 Ry

     iteration #  7     ecut=    60.00 Ry     beta= 0.50
     Davidson diagonalization with overlap
     ethr =  9.29E-07,  avg # of iterations =  3.0

     total cpu time spent up to now is       11.1 secs

     total energy              =     -71.02137407 Ry
     estimated scf accuracy    <       0.00000475 Ry

     iteration #  8     ecut=    60.00 Ry     beta= 0.50
     Davidson diagonalization with overlap
     ethr =  2.97E-08,  avg # of iterations =  3.0

     total cpu time spent up to now is       12.4 secs

     total energy              =     -71.02136719 Ry
     estimated scf accuracy    <       0.00002775 Ry

     iteration #  9     ecut=    60.00 Ry     beta= 0.50
     Davidson diagonalization with overlap
     ethr =  2.97E-08,  avg # of iterations =  2.0

     total cpu time spent up to now is       13.7 secs

     total energy              =     -71.02136896 Ry
     estimated scf accuracy    <       0.00000217 Ry

     iteration # 10     ecut=    60.00 Ry     beta= 0.50
     Davidson diagonalization with overlap
     ethr =  1.35E-08,  avg # of iterations =  2.0

     total cpu time spent up to now is       14.9 secs

     total energy              =     -71.02136929 Ry
     estimated scf accuracy    <       0.00000015 Ry

     iteration # 11     ecut=    60.00 Ry     beta= 0.50
     Davidson diagonalization with overlap
     ethr =  9.25E-10,  avg # of iterations =  2.0

     total cpu time spent up to now is       16.1 secs

     total energy              =     -71.02136930 Ry
     estimated scf accuracy    <       0.00000005 Ry

     iteration # 12     ecut=    60.00 Ry     beta= 0.50
     Davidson diagonalization with overlap
     ethr =  3.27E-10,  avg # of iterations =  2.0

     total cpu time spent up to now is       17.3 secs

     total energy              =     -71.02136929 Ry
     estimated scf accuracy    <       0.00000002 Ry

     iteration # 13     ecut=    60.00 Ry     beta= 0.50
     Davidson diagonalization with overlap
     ethr =  1.41E-10,  avg # of iterations =  2.0

     total cpu time spent up to now is       18.4 secs

     End of self-consistent calculation

          k = 0.0000 0.0000 0.0000 ( 45812 PWs)   bands (ev):

   -25.9799 -24.3617 -13.7461 -12.3289 -10.0402  -8.4558  -7.7744  -6.3795

     highest occupied level (ev):    -6.3795

!    total energy              =     -71.02136930 Ry
     estimated scf accuracy    <          1.9E-09 Ry

     The total energy is the sum of the following terms:
     one-electron contribution =    -149.38607761 Ry
     hartree contribution      =      77.82861433 Ry
     xc contribution           =     -19.63472374 Ry
     ewald contribution        =      20.17081772 Ry

     convergence has been achieved in  13 iterations

     Forces acting on atoms (cartesian axes, Ry/au):

     atom    1 type  1   force =    -0.00381677    0.00125123   -0.00158069
     atom    2 type  2   force =     0.00297485   -0.00099263    0.00165450
     atom    3 type  2   force =     0.00070960   -0.00030709    0.00015643
     atom    4 type  1   force =    -0.00001929    0.00016780   -0.00004650
     atom    5 type  2   force =     0.00019694   -0.00002779   -0.00014361
     atom    6 type  2   force =    -0.00004532   -0.00009152   -0.00004012
     The non-local contrib.  to forces
     atom    1 type  1   force =     0.77021177   -1.64216187    1.06624183
     atom    2 type  2   force =    -0.20365761    0.02536196   -0.04055331
     atom    3 type  2   force =     0.10693215    0.16613826   -0.08476546
     atom    4 type  1   force =     1.29160015    1.56864541   -0.62721392
     atom    5 type  2   force =    -0.11157346   -0.00546709    0.18522089
     atom    6 type  2   force =    -0.05223626   -0.17461721   -0.11622188
     The ionic contribution  to forces
     atom    1 type  1   force =    -4.46955240    3.48413394   -2.72802641
     atom    2 type  2   force =     2.56043424   -0.42406039    0.51688170
     atom    3 type  2   force =    -2.24283782   -2.98387012    1.46871977
     atom    4 type  1   force =     0.56459008   -3.28621437    1.85395254
     atom    5 type  2   force =     2.32239859    0.06842194   -3.29293495
     atom    6 type  2   force =     1.26496731    3.14158899    2.18140735
     The local contribution  to forces
     atom    1 type  1   force =     3.71632089   -1.88785874    1.69076468
     atom    2 type  2   force =    -2.35377661    0.39772051   -0.47471070
     atom    3 type  2   force =     2.13663364    2.81743468   -1.38383264
     atom    4 type  1   force =    -1.81875432    1.76286973   -1.24472227
     atom    5 type  2   force =    -2.21060088   -0.06296488    3.10752480
     atom    6 type  2   force =    -1.21275135   -2.96703902   -2.06525964
     The core correction contribution to forces
     atom    1 type  1   force =    -0.02077269    0.04714272   -0.03059175
     atom    2 type  2   force =     0.00000000    0.00000000    0.00000000
     atom    3 type  2   force =     0.00000000    0.00000000    0.00000000
     atom    4 type  1   force =    -0.03741471   -0.04509286    0.01788951
     atom    5 type  2   force =     0.00000000    0.00000000    0.00000000
     atom    6 type  2   force =     0.00000000    0.00000000    0.00000000
     The Hubbard contrib.    to forces
     atom    1 type  1   force =     0.00000000    0.00000000    0.00000000
     atom    2 type  2   force =     0.00000000    0.00000000    0.00000000
     atom    3 type  2   force =     0.00000000    0.00000000    0.00000000
     atom    4 type  1   force =     0.00000000    0.00000000    0.00000000
     atom    5 type  2   force =     0.00000000    0.00000000    0.00000000
     atom    6 type  2   force =     0.00000000    0.00000000    0.00000000
     The SCF correction term to forces
     atom    1 type  1   force =    -0.00000287    0.00001083   -0.00000683
     atom    2 type  2   force =    -0.00000372    0.00000096   -0.00000097
     atom    3 type  2   force =     0.00000309    0.00000576   -0.00000302
     atom    4 type  1   force =    -0.00001902   -0.00002445    0.00000985
     atom    5 type  2   force =    -0.00000585   -0.00000209    0.00000788
     atom    6 type  2   force =    -0.00000356   -0.00000860   -0.00000373

     Total force =     0.005651     Total SCF correction =     0.000039

     init_run     :      2.11s CPU      2.30s WALL (       1 calls)
     electrons    :     14.69s CPU     15.95s WALL (       1 calls)
     forces       :      0.87s CPU      0.97s WALL (       1 calls)

     Called by init_run:
     wfcinit      :      0.23s CPU      0.26s WALL (       1 calls)
     potinit      :      0.69s CPU      0.79s WALL (       1 calls)
     hinit0       :      0.98s CPU      1.02s WALL (       1 calls)

     Called by electrons:
     c_bands      :      6.08s CPU      6.38s WALL (      13 calls)
     sum_band     :      2.06s CPU      2.20s WALL (      13 calls)
     v_of_rho     :      5.32s CPU      6.09s WALL (      14 calls)
     mix_rho      :      1.34s CPU      1.44s WALL (      13 calls)

     Called by c_bands:
     init_us_2    :      0.17s CPU      0.18s WALL (      27 calls)
     init_us_2:cp :      0.17s CPU      0.18s WALL (      27 calls)
     regterg      :      5.77s CPU      6.04s WALL (      13 calls)

     Called by *egterg:
     rdiaghg      :      0.01s CPU      0.01s WALL (      43 calls)
     h_psi        :      5.61s CPU      5.90s WALL (      44 calls)
     g_psi        :      0.02s CPU      0.02s WALL (      30 calls)

     Called by h_psi:
     h_psi:calbec :      0.19s CPU      0.20s WALL (      44 calls)
     vloc_psi     :      5.25s CPU      5.52s WALL (      44 calls)
     add_vuspsi   :      0.14s CPU      0.15s WALL (      44 calls)

     General routines
     calbec       :      0.21s CPU      0.21s WALL (      48 calls)
     fft          :      3.60s CPU      4.11s WALL (     120 calls)
     ffts         :      0.34s CPU      0.38s WALL (      13 calls)
     fftw         :      4.52s CPU      4.79s WALL (     360 calls)

     Parallel routines

     PWSCF        :     17.77s CPU     19.38s WALL


   This run was terminated on:  14: 3: 7  12May2025            

=------------------------------------------------------------------------------=
   JOB DONE.
=------------------------------------------------------------------------------=
