
     Program PWSCF v.7.2 starts on 12May2025 at 14: 2: 7 

     This program is part of the open-source Quantum ESPRESSO suite
     for quantum simulation of materials; please cite
         "P. Giannozzi et al., J. Phys.:Condens. Matter 21 395502 (2009);
         "P. Giannozzi et al., J. Phys.:Condens. Matter 29 465901 (2017);
         "P. Giannozzi et al., J. Chem. Phys. 152 154105 (2020);
          URL http://www.quantum-espresso.org", 
     in publications or presentations arising from this work. More details at
     http://www.quantum-espresso.org/quote

     Parallel version (MPI), running on     8 processors

     MPI processes distributed on     1 nodes
     205618 MiB available memory on the printing compute node when the environment starts

     Waiting for input...
     Reading input from standard input
Warning: card &CELL ignored
Warning: card / ignored
Warning: card &FCP ignored
Warning: card / ignored
Warning: card &RISM ignored
Warning: card / ignored

     Current dimensions of program PWSCF are:
     Max number of different atomic species (ntypx) = 10
     Max number of k-points (npk) =  40000
     Max angular momentum in pseudopotentials (lmaxx) =  4

     gamma-point specific algorithms are used

     R & G space division:  proc/nbgrp/npool/nimage =       8
     Subspace diagonalization in iterative solution of the eigenvalue problem:
     a serial algorithm will be used


     Parallelization info
     --------------------
     sticks:   dense  smooth     PW     G-vecs:    dense   smooth      PW
     Min        1225    1225    305                91534    91534   11450
     Max        1228    1228    308                91540    91540   11456
     Sum        9809    9809   2449               732287   732287   91623

     Using Slab Decomposition



     bravais-lattice index     =            0
     lattice parameter (alat)  =      22.6767  a.u.
     unit-cell volume          =   11661.1211 (a.u.)^3
     number of atoms/cell      =            6
     number of atomic types    =            2
     number of electrons       =        16.00
     number of Kohn-Sham states=            8
     kinetic-energy cutoff     =      60.0000  Ry
     charge density cutoff     =     240.0000  Ry
     scf convergence threshold =      1.0E-08
     mixing beta               =       0.5000
     number of iterations used =            8  plain     mixing
     Exchange-correlation= PBE
                           (   1   4   3   4   0   0   0)

     celldm(1)=  22.676713  celldm(2)=   0.000000  celldm(3)=   0.000000
     celldm(4)=   0.000000  celldm(5)=   0.000000  celldm(6)=   0.000000

     crystal axes: (cart. coord. in units of alat)
               a(1) = (   1.000000   0.000000   0.000000 )  
               a(2) = (   0.000000   1.000000   0.000000 )  
               a(3) = (   0.000000   0.000000   1.000000 )  

     reciprocal axes: (cart. coord. in units 2 pi/alat)
               b(1) = (  1.000000  0.000000  0.000000 )  
               b(2) = (  0.000000  1.000000  0.000000 )  
               b(3) = (  0.000000  0.000000  1.000000 )  


     PseudoPot. # 1 for O  read from file:
     ./O.upf
     MD5 check sum: 9db02a5ece9d56b81b65a73f8163743d
     Pseudo is Norm-conserving + core correction, Zval =  6.0
     Generated using ONCVPSP code by D. R. Hamann
     Using radial grid of  936 points,  5 beta functions with: 
                l(1) =   0
                l(2) =   0
                l(3) =   1
                l(4) =   1
                l(5) =   2

     PseudoPot. # 2 for H  read from file:
     ./H.upf
     MD5 check sum: e96aa7e3e4a958db16958554ea960e2a
     Pseudo is Norm-conserving, Zval =  1.0
     Generated using ONCVPSP code by D. R. Hamann
     Using radial grid of 1166 points,  3 beta functions with: 
                l(1) =   0
                l(2) =   0
                l(3) =   1

     atomic species   valence    mass     pseudopotential
        O              6.00    15.99900     O ( 1.00)
        H              1.00     1.00800     H ( 1.00)

     No symmetry found



   Cartesian axes

     site n.     atom                  positions (alat units)
         1           O   tau(   1) = (  -0.2503754   0.1086414  -0.0048282  )
         2           H   tau(   2) = (  -0.1718787   0.0957843   0.0129537  )
         3           H   tau(   3) = (  -0.2882844   0.0456469   0.0276401  )
         4           O   tau(   4) = (  -0.0163116   0.0908894   0.0425254  )
         5           H   tau(   5) = (   0.0261601   0.0951935  -0.0257541  )
         6           H   tau(   6) = (   0.0046099   0.1567570   0.0838904  )

     number of k points=     1
                       cart. coord. in units 2pi/alat
        k(    1) = (   0.0000000   0.0000000   0.0000000), wk =   2.0000000

     Dense  grid:   366144 G-vectors     FFT dimensions: ( 120, 120, 120)

     Estimated max dynamical RAM per process >      44.55 MB

     Estimated total dynamical RAM >     356.41 MB

     Check: negative core charge=   -0.000005

     Initial potential from superposition of free atoms

     starting charge      16.0000, renormalised to      16.0000

     negative rho (up, down):  6.061E-04 0.000E+00
     Starting wfcs are   12 randomized atomic wfcs

     total cpu time spent up to now is        2.5 secs

     Self-consistent Calculation

     iteration #  1     ecut=    60.00 Ry     beta= 0.50
     Davidson diagonalization with overlap
     ethr =  1.00E-02,  avg # of iterations =  2.0

     negative rho (up, down):  2.776E-04 0.000E+00

     total cpu time spent up to now is        3.7 secs

     total energy              =     -70.77406385 Ry
     estimated scf accuracy    <       0.87100486 Ry

     iteration #  2     ecut=    60.00 Ry     beta= 0.50
     Davidson diagonalization with overlap
     ethr =  5.44E-03,  avg # of iterations =  2.0

     negative rho (up, down):  1.594E-04 0.000E+00

     total cpu time spent up to now is        4.9 secs

     total energy              =     -71.01461007 Ry
     estimated scf accuracy    <       0.11734285 Ry

     iteration #  3     ecut=    60.00 Ry     beta= 0.50
     Davidson diagonalization with overlap
     ethr =  7.33E-04,  avg # of iterations =  2.0

     negative rho (up, down):  9.212E-07 0.000E+00

     total cpu time spent up to now is        6.0 secs

     total energy              =     -71.01641221 Ry
     estimated scf accuracy    <       0.01826400 Ry

     iteration #  4     ecut=    60.00 Ry     beta= 0.50
     Davidson diagonalization with overlap
     ethr =  1.14E-04,  avg # of iterations =  3.0

     negative rho (up, down):  1.393E-07 0.000E+00

     total cpu time spent up to now is        7.3 secs

     total energy              =     -71.01988892 Ry
     estimated scf accuracy    <       0.01527248 Ry

     iteration #  5     ecut=    60.00 Ry     beta= 0.50
     Davidson diagonalization with overlap
     ethr =  9.55E-05,  avg # of iterations =  2.0

     negative rho (up, down):  2.792E-08 0.000E+00

     total cpu time spent up to now is        8.5 secs

     total energy              =     -71.02112173 Ry
     estimated scf accuracy    <       0.00131073 Ry

     iteration #  6     ecut=    60.00 Ry     beta= 0.50
     Davidson diagonalization with overlap
     ethr =  8.19E-06,  avg # of iterations =  3.0

     total cpu time spent up to now is        9.7 secs

     total energy              =     -71.02131272 Ry
     estimated scf accuracy    <       0.00014870 Ry

     iteration #  7     ecut=    60.00 Ry     beta= 0.50
     Davidson diagonalization with overlap
     ethr =  9.29E-07,  avg # of iterations =  3.0

     total cpu time spent up to now is       11.0 secs

     total energy              =     -71.02137117 Ry
     estimated scf accuracy    <       0.00000641 Ry

     iteration #  8     ecut=    60.00 Ry     beta= 0.50
     Davidson diagonalization with overlap
     ethr =  4.01E-08,  avg # of iterations =  3.0

     total cpu time spent up to now is       12.3 secs

     total energy              =     -71.02136402 Ry
     estimated scf accuracy    <       0.00002771 Ry

     iteration #  9     ecut=    60.00 Ry     beta= 0.50
     Davidson diagonalization with overlap
     ethr =  4.01E-08,  avg # of iterations =  2.0

     total cpu time spent up to now is       13.6 secs

     total energy              =     -71.02136535 Ry
     estimated scf accuracy    <       0.00000255 Ry

     iteration # 10     ecut=    60.00 Ry     beta= 0.50
     Davidson diagonalization with overlap
     ethr =  1.60E-08,  avg # of iterations =  2.0

     total cpu time spent up to now is       14.9 secs

     total energy              =     -71.02136578 Ry
     estimated scf accuracy    <       0.00000010 Ry

     iteration # 11     ecut=    60.00 Ry     beta= 0.50
     Davidson diagonalization with overlap
     ethr =  6.24E-10,  avg # of iterations =  2.0

     total cpu time spent up to now is       16.1 secs

     total energy              =     -71.02136579 Ry
     estimated scf accuracy    <       0.00000004 Ry

     iteration # 12     ecut=    60.00 Ry     beta= 0.50
     Davidson diagonalization with overlap
     ethr =  2.57E-10,  avg # of iterations =  2.0

     total cpu time spent up to now is       17.3 secs

     total energy              =     -71.02136579 Ry
     estimated scf accuracy    <       0.00000002 Ry

     iteration # 13     ecut=    60.00 Ry     beta= 0.50
     Davidson diagonalization with overlap
     ethr =  1.16E-10,  avg # of iterations =  2.0

     total cpu time spent up to now is       18.4 secs

     End of self-consistent calculation

          k = 0.0000 0.0000 0.0000 ( 45812 PWs)   bands (ev):

   -25.9811 -24.3536 -13.7475 -12.2761 -10.0435  -8.4799  -7.7792  -6.3763

     highest occupied level (ev):    -6.3763

!    total energy              =     -71.02136579 Ry
     estimated scf accuracy    <          1.5E-09 Ry

     The total energy is the sum of the following terms:
     one-electron contribution =    -149.35569392 Ry
     hartree contribution      =      77.81364387 Ry
     xc contribution           =     -19.63168968 Ry
     ewald contribution        =      20.15237395 Ry

     convergence has been achieved in  13 iterations

     Forces acting on atoms (cartesian axes, Ry/au):

     atom    1 type  1   force =     0.00329894   -0.00160192    0.00111485
     atom    2 type  2   force =    -0.00179163    0.00200940   -0.00093645
     atom    3 type  2   force =    -0.00155752   -0.00029760   -0.00013491
     atom    4 type  1   force =     0.00014045    0.00000958    0.00021106
     atom    5 type  2   force =     0.00002550   -0.00002887   -0.00019344
     atom    6 type  2   force =    -0.00011573   -0.00009058   -0.00006111
     The non-local contrib.  to forces
     atom    1 type  1   force =     0.75661900   -1.65252956    1.07811605
     atom    2 type  2   force =    -0.20015246    0.02717058   -0.04201573
     atom    3 type  2   force =     0.10664194    0.16621643   -0.08481849
     atom    4 type  1   force =     1.29049918    1.56706907   -0.62605372
     atom    5 type  2   force =    -0.11158832   -0.00547944    0.18522383
     atom    6 type  2   force =    -0.05224730   -0.17462806   -0.11621191
     The ionic contribution  to forces
     atom    1 type  1   force =    -4.43125057    3.51410227   -2.75559145
     atom    2 type  2   force =     2.52127044   -0.46012135    0.55060821
     atom    3 type  2   force =    -2.24501616   -2.98327698    1.46746253
     atom    4 type  1   force =     0.56778645   -3.28151406    1.84976081
     atom    5 type  2   force =     2.32218454    0.06880688   -3.29327697
     atom    6 type  2   force =     1.26502530    3.14200325    2.18103686
     The local contribution  to forces
     atom    1 type  1   force =     3.69856566   -1.91057344    1.70950367
     atom    2 type  2   force =    -2.32288269    0.43497393   -0.50956507
     atom    3 type  2   force =     2.13683526    2.81677158   -1.38281309
     atom    4 type  1   force =    -1.82073611    1.75952696   -1.24139496
     atom    5 type  2   force =    -2.21054522   -0.06333941    3.10781614
     atom    6 type  2   force =    -1.21286991   -2.96744412   -2.06492114
     The core correction contribution to forces
     atom    1 type  1   force =    -0.02060310    0.04739891   -0.03094063
     atom    2 type  2   force =     0.00000000    0.00000000    0.00000000
     atom    3 type  2   force =     0.00000000    0.00000000    0.00000000
     atom    4 type  1   force =    -0.03737634   -0.04503787    0.01785283
     atom    5 type  2   force =     0.00000000    0.00000000    0.00000000
     atom    6 type  2   force =     0.00000000    0.00000000    0.00000000
     The Hubbard contrib.    to forces
     atom    1 type  1   force =     0.00000000    0.00000000    0.00000000
     atom    2 type  2   force =     0.00000000    0.00000000    0.00000000
     atom    3 type  2   force =     0.00000000    0.00000000    0.00000000
     atom    4 type  1   force =     0.00000000    0.00000000    0.00000000
     atom    5 type  2   force =     0.00000000    0.00000000    0.00000000
     atom    6 type  2   force =     0.00000000    0.00000000    0.00000000
     The SCF correction term to forces
     atom    1 type  1   force =    -0.00001065    0.00001527   -0.00001059
     atom    2 type  2   force =    -0.00000551    0.00000161   -0.00000165
     atom    3 type  2   force =     0.00000283    0.00000674   -0.00000364
     atom    4 type  1   force =    -0.00001134   -0.00001915    0.00000831
     atom    5 type  2   force =    -0.00000409   -0.00000152    0.00000577
     atom    6 type  2   force =    -0.00000242   -0.00000627   -0.00000270

     Total force =     0.005048     Total SCF correction =     0.000035

     init_run     :      2.13s CPU      2.31s WALL (       1 calls)
     electrons    :     14.65s CPU     15.94s WALL (       1 calls)
     forces       :      0.88s CPU      0.97s WALL (       1 calls)

     Called by init_run:
     wfcinit      :      0.23s CPU      0.26s WALL (       1 calls)
     potinit      :      0.69s CPU      0.79s WALL (       1 calls)
     hinit0       :      0.99s CPU      1.03s WALL (       1 calls)

     Called by electrons:
     c_bands      :      6.07s CPU      6.37s WALL (      13 calls)
     sum_band     :      2.02s CPU      2.17s WALL (      13 calls)
     v_of_rho     :      5.32s CPU      6.08s WALL (      14 calls)
     mix_rho      :      1.33s CPU      1.45s WALL (      13 calls)

     Called by c_bands:
     init_us_2    :      0.18s CPU      0.19s WALL (      27 calls)
     init_us_2:cp :      0.18s CPU      0.19s WALL (      27 calls)
     regterg      :      5.75s CPU      6.03s WALL (      13 calls)

     Called by *egterg:
     rdiaghg      :      0.01s CPU      0.01s WALL (      43 calls)
     h_psi        :      5.60s CPU      5.89s WALL (      44 calls)
     g_psi        :      0.02s CPU      0.02s WALL (      30 calls)

     Called by h_psi:
     h_psi:calbec :      0.19s CPU      0.20s WALL (      44 calls)
     vloc_psi     :      5.22s CPU      5.50s WALL (      44 calls)
     add_vuspsi   :      0.15s CPU      0.15s WALL (      44 calls)

     General routines
     calbec       :      0.21s CPU      0.22s WALL (      48 calls)
     fft          :      3.61s CPU      4.14s WALL (     120 calls)
     ffts         :      0.35s CPU      0.40s WALL (      13 calls)
     fftw         :      4.70s CPU      4.99s WALL (     362 calls)

     Parallel routines

     PWSCF        :     17.76s CPU     19.38s WALL


   This run was terminated on:  14: 2:26  12May2025            

=------------------------------------------------------------------------------=
   JOB DONE.
=------------------------------------------------------------------------------=
