
     Program PWSCF v.7.2 starts on 12May2025 at 13:59:53 

     This program is part of the open-source Quantum ESPRESSO suite
     for quantum simulation of materials; please cite
         "P. Giannozzi et al., J. Phys.:Condens. Matter 21 395502 (2009);
         "P. Giannozzi et al., J. Phys.:Condens. Matter 29 465901 (2017);
         "P. Giannozzi et al., J. Chem. Phys. 152 154105 (2020);
          URL http://www.quantum-espresso.org", 
     in publications or presentations arising from this work. More details at
     http://www.quantum-espresso.org/quote

     Parallel version (MPI), running on     8 processors

     MPI processes distributed on     1 nodes
     205623 MiB available memory on the printing compute node when the environment starts

     Waiting for input...
     Reading input from standard input
Warning: card &CELL ignored
Warning: card / ignored
Warning: card &FCP ignored
Warning: card / ignored
Warning: card &RISM ignored
Warning: card / ignored

     Current dimensions of program PWSCF are:
     Max number of different atomic species (ntypx) = 10
     Max number of k-points (npk) =  40000
     Max angular momentum in pseudopotentials (lmaxx) =  4

     gamma-point specific algorithms are used

     R & G space division:  proc/nbgrp/npool/nimage =       8
     Subspace diagonalization in iterative solution of the eigenvalue problem:
     a serial algorithm will be used


     Parallelization info
     --------------------
     sticks:   dense  smooth     PW     G-vecs:    dense   smooth      PW
     Min        1225    1225    305                91534    91534   11450
     Max        1228    1228    308                91540    91540   11456
     Sum        9809    9809   2449               732287   732287   91623

     Using Slab Decomposition



     bravais-lattice index     =            0
     lattice parameter (alat)  =      22.6767  a.u.
     unit-cell volume          =   11661.1211 (a.u.)^3
     number of atoms/cell      =            6
     number of atomic types    =            2
     number of electrons       =        16.00
     number of Kohn-Sham states=            8
     kinetic-energy cutoff     =      60.0000  Ry
     charge density cutoff     =     240.0000  Ry
     scf convergence threshold =      1.0E-08
     mixing beta               =       0.5000
     number of iterations used =            8  plain     mixing
     Exchange-correlation= PBE
                           (   1   4   3   4   0   0   0)

     celldm(1)=  22.676713  celldm(2)=   0.000000  celldm(3)=   0.000000
     celldm(4)=   0.000000  celldm(5)=   0.000000  celldm(6)=   0.000000

     crystal axes: (cart. coord. in units of alat)
               a(1) = (   1.000000   0.000000   0.000000 )  
               a(2) = (   0.000000   1.000000   0.000000 )  
               a(3) = (   0.000000   0.000000   1.000000 )  

     reciprocal axes: (cart. coord. in units 2 pi/alat)
               b(1) = (  1.000000  0.000000  0.000000 )  
               b(2) = (  0.000000  1.000000  0.000000 )  
               b(3) = (  0.000000  0.000000  1.000000 )  


     PseudoPot. # 1 for O  read from file:
     ./O.upf
     MD5 check sum: 9db02a5ece9d56b81b65a73f8163743d
     Pseudo is Norm-conserving + core correction, Zval =  6.0
     Generated using ONCVPSP code by D. R. Hamann
     Using radial grid of  936 points,  5 beta functions with: 
                l(1) =   0
                l(2) =   0
                l(3) =   1
                l(4) =   1
                l(5) =   2

     PseudoPot. # 2 for H  read from file:
     ./H.upf
     MD5 check sum: e96aa7e3e4a958db16958554ea960e2a
     Pseudo is Norm-conserving, Zval =  1.0
     Generated using ONCVPSP code by D. R. Hamann
     Using radial grid of 1166 points,  3 beta functions with: 
                l(1) =   0
                l(2) =   0
                l(3) =   1

     atomic species   valence    mass     pseudopotential
        O              6.00    15.99900     O ( 1.00)
        H              1.00     1.00800     H ( 1.00)

     No symmetry found



   Cartesian axes

     site n.     atom                  positions (alat units)
         1           O   tau(   1) = (  -0.2495421   0.1086414  -0.0048282  )
         2           H   tau(   2) = (  -0.1718787   0.0966176   0.0129537  )
         3           H   tau(   3) = (  -0.2882844   0.0456469   0.0276401  )
         4           O   tau(   4) = (  -0.0163116   0.0908894   0.0425254  )
         5           H   tau(   5) = (   0.0261601   0.0951935  -0.0257541  )
         6           H   tau(   6) = (   0.0046099   0.1567570   0.0838904  )

     number of k points=     1
                       cart. coord. in units 2pi/alat
        k(    1) = (   0.0000000   0.0000000   0.0000000), wk =   2.0000000

     Dense  grid:   366144 G-vectors     FFT dimensions: ( 120, 120, 120)

     Estimated max dynamical RAM per process >      44.55 MB

     Estimated total dynamical RAM >     356.41 MB

     Check: negative core charge=   -0.000005

     Initial potential from superposition of free atoms

     starting charge      16.0000, renormalised to      16.0000

     negative rho (up, down):  6.063E-04 0.000E+00
     Starting wfcs are   12 randomized atomic wfcs

     total cpu time spent up to now is        2.4 secs

     Self-consistent Calculation

     iteration #  1     ecut=    60.00 Ry     beta= 0.50
     Davidson diagonalization with overlap
     ethr =  1.00E-02,  avg # of iterations =  2.0

     negative rho (up, down):  2.777E-04 0.000E+00

     total cpu time spent up to now is        3.6 secs

     total energy              =     -70.77310993 Ry
     estimated scf accuracy    <       0.87452826 Ry

     iteration #  2     ecut=    60.00 Ry     beta= 0.50
     Davidson diagonalization with overlap
     ethr =  5.47E-03,  avg # of iterations =  2.0

     negative rho (up, down):  1.594E-04 0.000E+00

     total cpu time spent up to now is        4.9 secs

     total energy              =     -71.01443803 Ry
     estimated scf accuracy    <       0.11712495 Ry

     iteration #  3     ecut=    60.00 Ry     beta= 0.50
     Davidson diagonalization with overlap
     ethr =  7.32E-04,  avg # of iterations =  2.0

     negative rho (up, down):  9.257E-07 0.000E+00

     total cpu time spent up to now is        6.0 secs

     total energy              =     -71.01665387 Ry
     estimated scf accuracy    <       0.01797038 Ry

     iteration #  4     ecut=    60.00 Ry     beta= 0.50
     Davidson diagonalization with overlap
     ethr =  1.12E-04,  avg # of iterations =  3.0

     negative rho (up, down):  1.317E-07 0.000E+00

     total cpu time spent up to now is        7.3 secs

     total energy              =     -71.01997550 Ry
     estimated scf accuracy    <       0.01364252 Ry

     iteration #  5     ecut=    60.00 Ry     beta= 0.50
     Davidson diagonalization with overlap
     ethr =  8.53E-05,  avg # of iterations =  2.0

     negative rho (up, down):  9.855E-08 0.000E+00

     total cpu time spent up to now is        8.5 secs

     total energy              =     -71.02112845 Ry
     estimated scf accuracy    <       0.00113348 Ry

     iteration #  6     ecut=    60.00 Ry     beta= 0.50
     Davidson diagonalization with overlap
     ethr =  7.08E-06,  avg # of iterations =  2.0

     total cpu time spent up to now is        9.6 secs

     total energy              =     -71.02103890 Ry
     estimated scf accuracy    <       0.00041465 Ry

     iteration #  7     ecut=    60.00 Ry     beta= 0.50
     Davidson diagonalization with overlap
     ethr =  2.59E-06,  avg # of iterations =  2.0

     total cpu time spent up to now is       10.9 secs

     total energy              =     -71.02118307 Ry
     estimated scf accuracy    <       0.00003154 Ry

     iteration #  8     ecut=    60.00 Ry     beta= 0.50
     Davidson diagonalization with overlap
     ethr =  1.97E-07,  avg # of iterations =  2.0

     total cpu time spent up to now is       12.1 secs

     total energy              =     -71.02117895 Ry
     estimated scf accuracy    <       0.00001454 Ry

     iteration #  9     ecut=    60.00 Ry     beta= 0.50
     Davidson diagonalization with overlap
     ethr =  9.09E-08,  avg # of iterations =  2.0

     total cpu time spent up to now is       13.3 secs

     total energy              =     -71.02118163 Ry
     estimated scf accuracy    <       0.00000097 Ry

     iteration # 10     ecut=    60.00 Ry     beta= 0.50
     Davidson diagonalization with overlap
     ethr =  6.05E-09,  avg # of iterations =  2.0

     total cpu time spent up to now is       14.5 secs

     total energy              =     -71.02118169 Ry
     estimated scf accuracy    <       0.00000015 Ry

     iteration # 11     ecut=    60.00 Ry     beta= 0.50
     Davidson diagonalization with overlap
     ethr =  9.43E-10,  avg # of iterations =  2.0

     total cpu time spent up to now is       15.8 secs

     total energy              =     -71.02118173 Ry
     estimated scf accuracy    <       0.00000006 Ry

     iteration # 12     ecut=    60.00 Ry     beta= 0.50
     Davidson diagonalization with overlap
     ethr =  3.69E-10,  avg # of iterations =  2.0

     total cpu time spent up to now is       16.8 secs

     End of self-consistent calculation

          k = 0.0000 0.0000 0.0000 ( 45812 PWs)   bands (ev):

   -25.9710 -24.3766 -13.7373 -12.3497 -10.0312  -8.4520  -7.7699  -6.3856

     highest occupied level (ev):    -6.3856

!    total energy              =     -71.02118173 Ry
     estimated scf accuracy    <          8.7E-09 Ry

     The total energy is the sum of the following terms:
     one-electron contribution =    -149.53219388 Ry
     hartree contribution      =      77.90302094 Ry
     xc contribution           =     -19.63743692 Ry
     ewald contribution        =      20.24542814 Ry

     convergence has been achieved in  12 iterations

     Forces acting on atoms (cartesian axes, Ry/au):

     atom    1 type  1   force =    -0.02190935   -0.00378230   -0.00082819
     atom    2 type  2   force =     0.01599511   -0.00320213    0.00424326
     atom    3 type  2   force =     0.00524242    0.00690684   -0.00352794
     atom    4 type  1   force =     0.00051113    0.00022292    0.00032576
     atom    5 type  2   force =     0.00007322   -0.00001879   -0.00015081
     atom    6 type  2   force =     0.00008747   -0.00012654   -0.00006207
     The non-local contrib.  to forces
     atom    1 type  1   force =     0.76087179   -1.63450092    1.08366438
     atom    2 type  2   force =    -0.20897688    0.02644704   -0.04427890
     atom    3 type  2   force =     0.10681615    0.16236158   -0.08273433
     atom    4 type  1   force =     1.29286425    1.56816328   -0.62554140
     atom    5 type  2   force =    -0.11156418   -0.00546773    0.18521451
     atom    6 type  2   force =    -0.05222211   -0.17460753   -0.11620176
     The ionic contribution  to forces
     atom    1 type  1   force =    -4.52114167    3.45646371   -2.76662037
     atom    2 type  2   force =     2.60126497   -0.43617439    0.57764535
     atom    3 type  2   force =    -2.25519757   -2.94260394    1.44586889
     atom    4 type  1   force =     0.58396701   -3.28815437    1.85457706
     atom    5 type  2   force =     2.32412193    0.06829438   -3.29347680
     atom    6 type  2   force =     1.26698532    3.14217461    2.18200588
     The local contribution  to forces
     atom    1 type  1   force =     3.75820296   -1.87277984    1.71317744
     atom    2 type  2   force =    -2.37630527    0.40654464   -0.52917351
     atom    3 type  2   force =     2.15363888    2.78717615   -1.36671350
     atom    4 type  1   force =    -1.83881585    1.76534850   -1.24660004
     atom    5 type  2   force =    -2.21246236   -0.06283026    3.10805156
     atom    6 type  2   force =    -1.21465881   -2.96766367   -2.06589969
     The core correction contribution to forces
     atom    1 type  1   force =    -0.01984954    0.04710924   -0.03113206
     atom    2 type  2   force =     0.00000000    0.00000000    0.00000000
     atom    3 type  2   force =     0.00000000    0.00000000    0.00000000
     atom    4 type  1   force =    -0.03746617   -0.04509242    0.01783750
     atom    5 type  2   force =     0.00000000    0.00000000    0.00000000
     atom    6 type  2   force =     0.00000000    0.00000000    0.00000000
     The Hubbard contrib.    to forces
     atom    1 type  1   force =     0.00000000    0.00000000    0.00000000
     atom    2 type  2   force =     0.00000000    0.00000000    0.00000000
     atom    3 type  2   force =     0.00000000    0.00000000    0.00000000
     atom    4 type  1   force =     0.00000000    0.00000000    0.00000000
     atom    5 type  2   force =     0.00000000    0.00000000    0.00000000
     atom    6 type  2   force =     0.00000000    0.00000000    0.00000000
     The SCF correction term to forces
     atom    1 type  1   force =     0.00001699   -0.00006309    0.00004004
     atom    2 type  2   force =     0.00002217   -0.00000804    0.00000794
     atom    3 type  2   force =    -0.00000516   -0.00001557    0.00000862
     atom    4 type  1   force =    -0.00002823   -0.00003068    0.00001026
     atom    5 type  2   force =    -0.00001230   -0.00000379    0.00001754
     atom    6 type  2   force =    -0.00000706   -0.00001857   -0.00000887

     Total force =     0.029449     Total SCF correction =     0.000098

     init_run     :      2.11s CPU      2.28s WALL (       1 calls)
     electrons    :     13.24s CPU     14.44s WALL (       1 calls)
     forces       :      0.86s CPU      0.97s WALL (       1 calls)

     Called by init_run:
     wfcinit      :      0.24s CPU      0.26s WALL (       1 calls)
     potinit      :      0.67s CPU      0.76s WALL (       1 calls)
     hinit0       :      0.99s CPU      1.03s WALL (       1 calls)

     Called by electrons:
     c_bands      :      5.32s CPU      5.59s WALL (      12 calls)
     sum_band     :      1.87s CPU      2.00s WALL (      12 calls)
     v_of_rho     :      4.98s CPU      5.69s WALL (      13 calls)
     mix_rho      :      1.18s CPU      1.29s WALL (      12 calls)

     Called by c_bands:
     init_us_2    :      0.16s CPU      0.17s WALL (      25 calls)
     init_us_2:cp :      0.16s CPU      0.17s WALL (      25 calls)
     regterg      :      5.03s CPU      5.27s WALL (      12 calls)

     Called by *egterg:
     rdiaghg      :      0.01s CPU      0.01s WALL (      37 calls)
     h_psi        :      4.93s CPU      5.18s WALL (      38 calls)
     g_psi        :      0.02s CPU      0.02s WALL (      25 calls)

     Called by h_psi:
     h_psi:calbec :      0.17s CPU      0.18s WALL (      38 calls)
     vloc_psi     :      4.60s CPU      4.84s WALL (      38 calls)
     add_vuspsi   :      0.13s CPU      0.13s WALL (      38 calls)

     General routines
     calbec       :      0.19s CPU      0.19s WALL (      42 calls)
     fft          :      3.40s CPU      3.89s WALL (     112 calls)
     ffts         :      0.31s CPU      0.34s WALL (      12 calls)
     fftw         :      3.98s CPU      4.21s WALL (     318 calls)

     Parallel routines

     PWSCF        :     16.32s CPU     17.85s WALL


   This run was terminated on:  14: 0:11  12May2025            

=------------------------------------------------------------------------------=
   JOB DONE.
=------------------------------------------------------------------------------=
