
     Program PWSCF v.7.2 starts on 12May2025 at 14: 9:16 

     This program is part of the open-source Quantum ESPRESSO suite
     for quantum simulation of materials; please cite
         "P. Giannozzi et al., J. Phys.:Condens. Matter 21 395502 (2009);
         "P. Giannozzi et al., J. Phys.:Condens. Matter 29 465901 (2017);
         "P. Giannozzi et al., J. Chem. Phys. 152 154105 (2020);
          URL http://www.quantum-espresso.org", 
     in publications or presentations arising from this work. More details at
     http://www.quantum-espresso.org/quote

     Parallel version (MPI), running on     8 processors

     MPI processes distributed on     1 nodes
     206662 MiB available memory on the printing compute node when the environment starts

     Waiting for input...
     Reading input from standard input
Warning: card &CELL ignored
Warning: card / ignored
Warning: card &FCP ignored
Warning: card / ignored
Warning: card &RISM ignored
Warning: card / ignored

     Current dimensions of program PWSCF are:
     Max number of different atomic species (ntypx) = 10
     Max number of k-points (npk) =  40000
     Max angular momentum in pseudopotentials (lmaxx) =  4

     gamma-point specific algorithms are used

     R & G space division:  proc/nbgrp/npool/nimage =       8
     Subspace diagonalization in iterative solution of the eigenvalue problem:
     a serial algorithm will be used


     Parallelization info
     --------------------
     sticks:   dense  smooth     PW     G-vecs:    dense   smooth      PW
     Min        1225    1225    305                91534    91534   11450
     Max        1228    1228    308                91540    91540   11456
     Sum        9809    9809   2449               732287   732287   91623

     Using Slab Decomposition



     bravais-lattice index     =            0
     lattice parameter (alat)  =      22.6767  a.u.
     unit-cell volume          =   11661.1211 (a.u.)^3
     number of atoms/cell      =            6
     number of atomic types    =            2
     number of electrons       =        16.00
     number of Kohn-Sham states=            8
     kinetic-energy cutoff     =      60.0000  Ry
     charge density cutoff     =     240.0000  Ry
     scf convergence threshold =      1.0E-08
     mixing beta               =       0.5000
     number of iterations used =            8  plain     mixing
     Exchange-correlation= PBE
                           (   1   4   3   4   0   0   0)

     celldm(1)=  22.676713  celldm(2)=   0.000000  celldm(3)=   0.000000
     celldm(4)=   0.000000  celldm(5)=   0.000000  celldm(6)=   0.000000

     crystal axes: (cart. coord. in units of alat)
               a(1) = (   1.000000   0.000000   0.000000 )  
               a(2) = (   0.000000   1.000000   0.000000 )  
               a(3) = (   0.000000   0.000000   1.000000 )  

     reciprocal axes: (cart. coord. in units 2 pi/alat)
               b(1) = (  1.000000  0.000000  0.000000 )  
               b(2) = (  0.000000  1.000000  0.000000 )  
               b(3) = (  0.000000  0.000000  1.000000 )  


     PseudoPot. # 1 for O  read from file:
     ./O.upf
     MD5 check sum: 9db02a5ece9d56b81b65a73f8163743d
     Pseudo is Norm-conserving + core correction, Zval =  6.0
     Generated using ONCVPSP code by D. R. Hamann
     Using radial grid of  936 points,  5 beta functions with: 
                l(1) =   0
                l(2) =   0
                l(3) =   1
                l(4) =   1
                l(5) =   2

     PseudoPot. # 2 for H  read from file:
     ./H.upf
     MD5 check sum: e96aa7e3e4a958db16958554ea960e2a
     Pseudo is Norm-conserving, Zval =  1.0
     Generated using ONCVPSP code by D. R. Hamann
     Using radial grid of 1166 points,  3 beta functions with: 
                l(1) =   0
                l(2) =   0
                l(3) =   1

     atomic species   valence    mass     pseudopotential
        O              6.00    15.99900     O ( 1.00)
        H              1.00     1.00800     H ( 1.00)

     No symmetry found



   Cartesian axes

     site n.     atom                  positions (alat units)
         1           O   tau(   1) = (  -0.2503754   0.1086414  -0.0048282  )
         2           H   tau(   2) = (  -0.1718787   0.0966176   0.0129537  )
         3           H   tau(   3) = (  -0.2882844   0.0456469   0.0276401  )
         4           O   tau(   4) = (  -0.0163116   0.0908894   0.0425254  )
         5           H   tau(   5) = (   0.0261601   0.0951935  -0.0257541  )
         6           H   tau(   6) = (   0.0037765   0.1567570   0.0838904  )

     number of k points=     1
                       cart. coord. in units 2pi/alat
        k(    1) = (   0.0000000   0.0000000   0.0000000), wk =   2.0000000

     Dense  grid:   366144 G-vectors     FFT dimensions: ( 120, 120, 120)

     Estimated max dynamical RAM per process >      44.55 MB

     Estimated total dynamical RAM >     356.41 MB

     Check: negative core charge=   -0.000005

     Initial potential from superposition of free atoms

     starting charge      16.0000, renormalised to      16.0000

     negative rho (up, down):  6.063E-04 0.000E+00
     Starting wfcs are   12 randomized atomic wfcs

     total cpu time spent up to now is        2.5 secs

     Self-consistent Calculation

     iteration #  1     ecut=    60.00 Ry     beta= 0.50
     Davidson diagonalization with overlap
     ethr =  1.00E-02,  avg # of iterations =  2.0

     negative rho (up, down):  2.777E-04 0.000E+00

     total cpu time spent up to now is        3.7 secs

     total energy              =     -70.77381202 Ry
     estimated scf accuracy    <       0.87284592 Ry

     iteration #  2     ecut=    60.00 Ry     beta= 0.50
     Davidson diagonalization with overlap
     ethr =  5.46E-03,  avg # of iterations =  2.0

     negative rho (up, down):  1.594E-04 0.000E+00

     total cpu time spent up to now is        4.9 secs

     total energy              =     -71.01465814 Ry
     estimated scf accuracy    <       0.11689668 Ry

     iteration #  3     ecut=    60.00 Ry     beta= 0.50
     Davidson diagonalization with overlap
     ethr =  7.31E-04,  avg # of iterations =  2.0

     negative rho (up, down):  9.218E-07 0.000E+00

     total cpu time spent up to now is        6.0 secs

     total energy              =     -71.01645739 Ry
     estimated scf accuracy    <       0.01820650 Ry

     iteration #  4     ecut=    60.00 Ry     beta= 0.50
     Davidson diagonalization with overlap
     ethr =  1.14E-04,  avg # of iterations =  3.0

     negative rho (up, down):  1.423E-07 0.000E+00

     total cpu time spent up to now is        7.3 secs

     total energy              =     -71.02003937 Ry
     estimated scf accuracy    <       0.01457588 Ry

     iteration #  5     ecut=    60.00 Ry     beta= 0.50
     Davidson diagonalization with overlap
     ethr =  9.11E-05,  avg # of iterations =  2.0

     negative rho (up, down):  6.998E-08 0.000E+00

     total cpu time spent up to now is        8.5 secs

     total energy              =     -71.02123748 Ry
     estimated scf accuracy    <       0.00138479 Ry

     iteration #  6     ecut=    60.00 Ry     beta= 0.50
     Davidson diagonalization with overlap
     ethr =  8.65E-06,  avg # of iterations =  2.0

     total cpu time spent up to now is        9.7 secs

     total energy              =     -71.02121253 Ry
     estimated scf accuracy    <       0.00046302 Ry

     iteration #  7     ecut=    60.00 Ry     beta= 0.50
     Davidson diagonalization with overlap
     ethr =  2.89E-06,  avg # of iterations =  2.0

     total cpu time spent up to now is       10.9 secs

     total energy              =     -71.02136740 Ry
     estimated scf accuracy    <       0.00001538 Ry

     iteration #  8     ecut=    60.00 Ry     beta= 0.50
     Davidson diagonalization with overlap
     ethr =  9.61E-08,  avg # of iterations =  3.0

     total cpu time spent up to now is       12.2 secs

     total energy              =     -71.02137080 Ry
     estimated scf accuracy    <       0.00002145 Ry

     iteration #  9     ecut=    60.00 Ry     beta= 0.50
     Davidson diagonalization with overlap
     ethr =  9.61E-08,  avg # of iterations =  1.0

     total cpu time spent up to now is       13.3 secs

     total energy              =     -71.02136437 Ry
     estimated scf accuracy    <       0.00001408 Ry

     iteration # 10     ecut=    60.00 Ry     beta= 0.50
     Davidson diagonalization with overlap
     ethr =  8.80E-08,  avg # of iterations =  2.0

     total cpu time spent up to now is       14.6 secs

     total energy              =     -71.02136716 Ry
     estimated scf accuracy    <       0.00000002 Ry

     iteration # 11     ecut=    60.00 Ry     beta= 0.50
     Davidson diagonalization with overlap
     ethr =  1.54E-10,  avg # of iterations =  3.0

     total cpu time spent up to now is       15.8 secs

     End of self-consistent calculation

          k = 0.0000 0.0000 0.0000 ( 45812 PWs)   bands (ev):

   -25.9909 -24.3548 -13.7792 -12.3063 -10.0287  -8.4663  -7.7777  -6.3781

     highest occupied level (ev):    -6.3781

!    total energy              =     -71.02136719 Ry
     estimated scf accuracy    <          3.1E-09 Ry

     The total energy is the sum of the following terms:
     one-electron contribution =    -149.41057071 Ry
     hartree contribution      =      77.84025825 Ry
     xc contribution           =     -19.63538814 Ry
     ewald contribution        =      20.18433341 Ry

     convergence has been achieved in  11 iterations

     Forces acting on atoms (cartesian axes, Ry/au):

     atom    1 type  1   force =     0.00002482    0.00025817   -0.00019359
     atom    2 type  2   force =    -0.00001712   -0.00008576    0.00005804
     atom    3 type  2   force =    -0.00006772   -0.00032802    0.00008071
     atom    4 type  1   force =    -0.00199665   -0.00443301   -0.00202705
     atom    5 type  2   force =     0.00018886    0.00072563    0.00043646
     atom    6 type  2   force =     0.00186781    0.00386299    0.00164544
     The non-local contrib.  to forces
     atom    1 type  1   force =     0.76277884   -1.63863880    1.08200814
     atom    2 type  2   force =    -0.20157602    0.02518186   -0.04221416
     atom    3 type  2   force =     0.10681956    0.16619334   -0.08473442
     atom    4 type  1   force =     1.27632448    1.57690724   -0.62346385
     atom    5 type  2   force =    -0.11158317   -0.00532413    0.18525730
     atom    6 type  2   force =    -0.05056658   -0.17670710   -0.11767079
     The ionic contribution  to forces
     atom    1 type  1   force =    -4.44878331    3.48024792   -2.76003080
     atom    2 type  2   force =     2.53508141   -0.42077120    0.55399472
     atom    3 type  2   force =    -2.24351410   -2.98418101    1.46720342
     atom    4 type  1   force =     0.59730577   -3.30971219    1.83497522
     atom    5 type  2   force =     2.32358583    0.06881133   -3.29258517
     atom    6 type  2   force =     1.23632439    3.16560515    2.19644261
     The local contribution  to forces
     atom    1 type  1   force =     3.70669513   -1.88836451    1.70885341
     atom    2 type  2   force =    -2.33350811    0.39552133   -0.51176272
     atom    3 type  2   force =     2.13663794    2.81767643   -1.38242824
     atom    4 type  1   force =    -1.83862261    1.77358935   -1.23148554
     atom    5 type  2   force =    -2.21179307   -0.06274196    3.10772016
     atom    6 type  2   force =    -1.18387055   -2.98501200   -2.07716428
     The core correction contribution to forces
     atom    1 type  1   force =    -0.02069678    0.04703360   -0.03107185
     atom    2 type  2   force =     0.00000000    0.00000000    0.00000000
     atom    3 type  2   force =     0.00000000    0.00000000    0.00000000
     atom    4 type  1   force =    -0.03695085   -0.04518141    0.01790605
     atom    5 type  2   force =     0.00000000    0.00000000    0.00000000
     atom    6 type  2   force =     0.00000000    0.00000000    0.00000000
     The Hubbard contrib.    to forces
     atom    1 type  1   force =     0.00000000    0.00000000    0.00000000
     atom    2 type  2   force =     0.00000000    0.00000000    0.00000000
     atom    3 type  2   force =     0.00000000    0.00000000    0.00000000
     atom    4 type  1   force =     0.00000000    0.00000000    0.00000000
     atom    5 type  2   force =     0.00000000    0.00000000    0.00000000
     atom    6 type  2   force =     0.00000000    0.00000000    0.00000000
     The SCF correction term to forces
     atom    1 type  1   force =     0.00004690   -0.00000171    0.00000730
     atom    2 type  2   force =     0.00000156    0.00000056   -0.00000001
     atom    3 type  2   force =     0.00000484    0.00000155   -0.00000026
     atom    4 type  1   force =    -0.00003749   -0.00001767    0.00000086
     atom    5 type  2   force =    -0.00000477   -0.00000129    0.00000396
     atom    6 type  2   force =    -0.00000350   -0.00000475   -0.00000231

     Total force =     0.007061     Total SCF correction =     0.000064

     init_run     :      2.15s CPU      2.34s WALL (       1 calls)
     electrons    :     12.35s CPU     13.38s WALL (       1 calls)
     forces       :      0.92s CPU      1.01s WALL (       1 calls)

     Called by init_run:
     wfcinit      :      0.23s CPU      0.26s WALL (       1 calls)
     potinit      :      0.70s CPU      0.79s WALL (       1 calls)
     hinit0       :      1.01s CPU      1.05s WALL (       1 calls)

     Called by electrons:
     c_bands      :      5.13s CPU      5.35s WALL (      11 calls)
     sum_band     :      1.75s CPU      1.85s WALL (      11 calls)
     v_of_rho     :      4.61s CPU      5.26s WALL (      12 calls)
     mix_rho      :      1.03s CPU      1.12s WALL (      11 calls)

     Called by c_bands:
     init_us_2    :      0.15s CPU      0.16s WALL (      23 calls)
     init_us_2:cp :      0.15s CPU      0.16s WALL (      23 calls)
     regterg      :      4.86s CPU      5.06s WALL (      11 calls)

     Called by *egterg:
     rdiaghg      :      0.01s CPU      0.01s WALL (      35 calls)
     h_psi        :      4.78s CPU      4.99s WALL (      36 calls)
     g_psi        :      0.02s CPU      0.02s WALL (      24 calls)

     Called by h_psi:
     h_psi:calbec :      0.17s CPU      0.18s WALL (      36 calls)
     vloc_psi     :      4.46s CPU      4.66s WALL (      36 calls)
     add_vuspsi   :      0.12s CPU      0.12s WALL (      36 calls)

     General routines
     calbec       :      0.19s CPU      0.19s WALL (      40 calls)
     fft          :      3.22s CPU      3.64s WALL (     104 calls)
     ffts         :      0.29s CPU      0.32s WALL (      11 calls)
     fftw         :      3.86s CPU      4.05s WALL (     306 calls)

     Parallel routines

     PWSCF        :     15.52s CPU     16.87s WALL


   This run was terminated on:  14: 9:32  12May2025            

=------------------------------------------------------------------------------=
   JOB DONE.
=------------------------------------------------------------------------------=
