
     Program PWSCF v.7.2 starts on 12May2025 at 14: 9:33 

     This program is part of the open-source Quantum ESPRESSO suite
     for quantum simulation of materials; please cite
         "P. Giannozzi et al., J. Phys.:Condens. Matter 21 395502 (2009);
         "P. Giannozzi et al., J. Phys.:Condens. Matter 29 465901 (2017);
         "P. Giannozzi et al., J. Chem. Phys. 152 154105 (2020);
          URL http://www.quantum-espresso.org", 
     in publications or presentations arising from this work. More details at
     http://www.quantum-espresso.org/quote

     Parallel version (MPI), running on     8 processors

     MPI processes distributed on     1 nodes
     206659 MiB available memory on the printing compute node when the environment starts

     Waiting for input...
     Reading input from standard input
Warning: card &CELL ignored
Warning: card / ignored
Warning: card &FCP ignored
Warning: card / ignored
Warning: card &RISM ignored
Warning: card / ignored

     Current dimensions of program PWSCF are:
     Max number of different atomic species (ntypx) = 10
     Max number of k-points (npk) =  40000
     Max angular momentum in pseudopotentials (lmaxx) =  4

     gamma-point specific algorithms are used

     R & G space division:  proc/nbgrp/npool/nimage =       8
     Subspace diagonalization in iterative solution of the eigenvalue problem:
     a serial algorithm will be used


     Parallelization info
     --------------------
     sticks:   dense  smooth     PW     G-vecs:    dense   smooth      PW
     Min        1225    1225    305                91534    91534   11450
     Max        1228    1228    308                91540    91540   11456
     Sum        9809    9809   2449               732287   732287   91623

     Using Slab Decomposition



     bravais-lattice index     =            0
     lattice parameter (alat)  =      22.6767  a.u.
     unit-cell volume          =   11661.1211 (a.u.)^3
     number of atoms/cell      =            6
     number of atomic types    =            2
     number of electrons       =        16.00
     number of Kohn-Sham states=            8
     kinetic-energy cutoff     =      60.0000  Ry
     charge density cutoff     =     240.0000  Ry
     scf convergence threshold =      1.0E-08
     mixing beta               =       0.5000
     number of iterations used =            8  plain     mixing
     Exchange-correlation= PBE
                           (   1   4   3   4   0   0   0)

     celldm(1)=  22.676713  celldm(2)=   0.000000  celldm(3)=   0.000000
     celldm(4)=   0.000000  celldm(5)=   0.000000  celldm(6)=   0.000000

     crystal axes: (cart. coord. in units of alat)
               a(1) = (   1.000000   0.000000   0.000000 )  
               a(2) = (   0.000000   1.000000   0.000000 )  
               a(3) = (   0.000000   0.000000   1.000000 )  

     reciprocal axes: (cart. coord. in units 2 pi/alat)
               b(1) = (  1.000000  0.000000  0.000000 )  
               b(2) = (  0.000000  1.000000  0.000000 )  
               b(3) = (  0.000000  0.000000  1.000000 )  


     PseudoPot. # 1 for O  read from file:
     ./O.upf
     MD5 check sum: 9db02a5ece9d56b81b65a73f8163743d
     Pseudo is Norm-conserving + core correction, Zval =  6.0
     Generated using ONCVPSP code by D. R. Hamann
     Using radial grid of  936 points,  5 beta functions with: 
                l(1) =   0
                l(2) =   0
                l(3) =   1
                l(4) =   1
                l(5) =   2

     PseudoPot. # 2 for H  read from file:
     ./H.upf
     MD5 check sum: e96aa7e3e4a958db16958554ea960e2a
     Pseudo is Norm-conserving, Zval =  1.0
     Generated using ONCVPSP code by D. R. Hamann
     Using radial grid of 1166 points,  3 beta functions with: 
                l(1) =   0
                l(2) =   0
                l(3) =   1

     atomic species   valence    mass     pseudopotential
        O              6.00    15.99900     O ( 1.00)
        H              1.00     1.00800     H ( 1.00)

     No symmetry found



   Cartesian axes

     site n.     atom                  positions (alat units)
         1           O   tau(   1) = (  -0.2503754   0.1086414  -0.0048282  )
         2           H   tau(   2) = (  -0.1718787   0.0966176   0.0129537  )
         3           H   tau(   3) = (  -0.2882844   0.0456469   0.0276401  )
         4           O   tau(   4) = (  -0.0163116   0.0908894   0.0425254  )
         5           H   tau(   5) = (   0.0261601   0.0951935  -0.0257541  )
         6           H   tau(   6) = (   0.0054432   0.1567570   0.0838904  )

     number of k points=     1
                       cart. coord. in units 2pi/alat
        k(    1) = (   0.0000000   0.0000000   0.0000000), wk =   2.0000000

     Dense  grid:   366144 G-vectors     FFT dimensions: ( 120, 120, 120)

     Estimated max dynamical RAM per process >      44.55 MB

     Estimated total dynamical RAM >     356.41 MB

     Check: negative core charge=   -0.000005

     Initial potential from superposition of free atoms

     starting charge      16.0000, renormalised to      16.0000

     negative rho (up, down):  6.060E-04 0.000E+00
     Starting wfcs are   12 randomized atomic wfcs

     total cpu time spent up to now is        2.4 secs

     Self-consistent Calculation

     iteration #  1     ecut=    60.00 Ry     beta= 0.50
     Davidson diagonalization with overlap
     ethr =  1.00E-02,  avg # of iterations =  2.0

     negative rho (up, down):  2.776E-04 0.000E+00

     total cpu time spent up to now is        3.6 secs

     total energy              =     -70.77399375 Ry
     estimated scf accuracy    <       0.87095814 Ry

     iteration #  2     ecut=    60.00 Ry     beta= 0.50
     Davidson diagonalization with overlap
     ethr =  5.44E-03,  avg # of iterations =  2.0

     negative rho (up, down):  1.594E-04 0.000E+00

     total cpu time spent up to now is        4.8 secs

     total energy              =     -71.01458553 Ry
     estimated scf accuracy    <       0.11750665 Ry

     iteration #  3     ecut=    60.00 Ry     beta= 0.50
     Davidson diagonalization with overlap
     ethr =  7.34E-04,  avg # of iterations =  2.0

     negative rho (up, down):  8.844E-07 0.000E+00

     total cpu time spent up to now is        5.9 secs

     total energy              =     -71.01641037 Ry
     estimated scf accuracy    <       0.01827462 Ry

     iteration #  4     ecut=    60.00 Ry     beta= 0.50
     Davidson diagonalization with overlap
     ethr =  1.14E-04,  avg # of iterations =  3.0

     negative rho (up, down):  1.429E-07 0.000E+00

     total cpu time spent up to now is        7.2 secs

     total energy              =     -71.01988230 Ry
     estimated scf accuracy    <       0.01525628 Ry

     iteration #  5     ecut=    60.00 Ry     beta= 0.50
     Davidson diagonalization with overlap
     ethr =  9.54E-05,  avg # of iterations =  2.0

     negative rho (up, down):  3.159E-08 0.000E+00

     total cpu time spent up to now is        8.4 secs

     total energy              =     -71.02112880 Ry
     estimated scf accuracy    <       0.00129615 Ry

     iteration #  6     ecut=    60.00 Ry     beta= 0.50
     Davidson diagonalization with overlap
     ethr =  8.10E-06,  avg # of iterations =  3.0

     total cpu time spent up to now is        9.7 secs

     total energy              =     -71.02131659 Ry
     estimated scf accuracy    <       0.00015211 Ry

     iteration #  7     ecut=    60.00 Ry     beta= 0.50
     Davidson diagonalization with overlap
     ethr =  9.51E-07,  avg # of iterations =  3.0

     total cpu time spent up to now is       11.0 secs

     total energy              =     -71.02137324 Ry
     estimated scf accuracy    <       0.00000477 Ry

     iteration #  8     ecut=    60.00 Ry     beta= 0.50
     Davidson diagonalization with overlap
     ethr =  2.98E-08,  avg # of iterations =  3.0

     total cpu time spent up to now is       12.3 secs

     total energy              =     -71.02136639 Ry
     estimated scf accuracy    <       0.00002786 Ry

     iteration #  9     ecut=    60.00 Ry     beta= 0.50
     Davidson diagonalization with overlap
     ethr =  2.98E-08,  avg # of iterations =  2.0

     total cpu time spent up to now is       13.6 secs

     total energy              =     -71.02136813 Ry
     estimated scf accuracy    <       0.00000223 Ry

     iteration # 10     ecut=    60.00 Ry     beta= 0.50
     Davidson diagonalization with overlap
     ethr =  1.39E-08,  avg # of iterations =  2.0

     total cpu time spent up to now is       14.8 secs

     total energy              =     -71.02136847 Ry
     estimated scf accuracy    <       0.00000015 Ry

     iteration # 11     ecut=    60.00 Ry     beta= 0.50
     Davidson diagonalization with overlap
     ethr =  9.42E-10,  avg # of iterations =  2.0

     total cpu time spent up to now is       16.1 secs

     total energy              =     -71.02136848 Ry
     estimated scf accuracy    <       0.00000005 Ry

     iteration # 12     ecut=    60.00 Ry     beta= 0.50
     Davidson diagonalization with overlap
     ethr =  3.33E-10,  avg # of iterations =  2.0

     total cpu time spent up to now is       17.2 secs

     total energy              =     -71.02136847 Ry
     estimated scf accuracy    <       0.00000002 Ry

     iteration # 13     ecut=    60.00 Ry     beta= 0.50
     Davidson diagonalization with overlap
     ethr =  1.45E-10,  avg # of iterations =  2.0

     total cpu time spent up to now is       18.3 secs

     End of self-consistent calculation

          k = 0.0000 0.0000 0.0000 ( 45812 PWs)   bands (ev):

   -25.9735 -24.3517 -13.7174 -12.3050 -10.0575  -8.4609  -7.7757  -6.3747

     highest occupied level (ev):    -6.3747

!    total energy              =     -71.02136847 Ry
     estimated scf accuracy    <          2.3E-09 Ry

     The total energy is the sum of the following terms:
     one-electron contribution =    -149.32777622 Ry
     hartree contribution      =      77.80034656 Ry
     xc contribution           =     -19.63045371 Ry
     ewald contribution        =      20.13651489 Ry

     convergence has been achieved in  13 iterations

     Forces acting on atoms (cartesian axes, Ry/au):

     atom    1 type  1   force =     0.00012151    0.00011462   -0.00023470
     atom    2 type  2   force =    -0.00011577    0.00021129    0.00021221
     atom    3 type  2   force =    -0.00007923   -0.00032757    0.00007855
     atom    4 type  1   force =     0.00208250    0.00488982    0.00254825
     atom    5 type  2   force =    -0.00010799   -0.00078715   -0.00085735
     atom    6 type  2   force =    -0.00190103   -0.00410101   -0.00174696
     The non-local contrib.  to forces
     atom    1 type  1   force =     0.76290429   -1.63934650    1.08147502
     atom    2 type  2   force =    -0.20160776    0.02514735   -0.04224325
     atom    3 type  2   force =     0.10681753    0.16618796   -0.08473849
     atom    4 type  1   force =     1.30483909    1.55997538   -0.62908632
     atom    5 type  2   force =    -0.11159295   -0.00561079    0.18519389
     atom    6 type  2   force =    -0.05384022   -0.17248383   -0.11472704
     The ionic contribution  to forces
     atom    1 type  1   force =    -4.44552661    3.48115186   -2.75836477
     atom    2 type  2   force =     2.53621570   -0.42012051    0.55476221
     atom    3 type  2   force =    -2.24315809   -2.98399614    1.46729713
     atom    4 type  1   force =     0.53810166   -3.26229054    1.86475614
     atom    5 type  2   force =     2.32075693    0.06804837   -3.29394398
     atom    6 type  2   force =     1.29361041    3.11720697    2.16549327
     The local contribution  to forces
     atom    1 type  1   force =     3.70347422   -1.88874803    1.70767700
     atom    2 type  2   force =    -2.33469779    0.39519948   -0.51234366
     atom    3 type  2   force =     2.13627974    2.81749034   -1.38251482
     atom    4 type  1   force =    -1.80299826    1.75223489   -1.25098702
     atom    5 type  2   force =    -2.20924363   -0.06320623    3.10784579
     atom    6 type  2   force =    -1.24164538   -2.94879841   -2.05254712
     The core correction contribution to forces
     atom    1 type  1   force =    -0.02070492    0.04706058   -0.03105177
     atom    2 type  2   force =     0.00000000    0.00000000    0.00000000
     atom    3 type  2   force =     0.00000000    0.00000000    0.00000000
     atom    4 type  1   force =    -0.03781848   -0.04498856    0.01781742
     atom    5 type  2   force =     0.00000000    0.00000000    0.00000000
     atom    6 type  2   force =     0.00000000    0.00000000    0.00000000
     The Hubbard contrib.    to forces
     atom    1 type  1   force =     0.00000000    0.00000000    0.00000000
     atom    2 type  2   force =     0.00000000    0.00000000    0.00000000
     atom    3 type  2   force =     0.00000000    0.00000000    0.00000000
     atom    4 type  1   force =     0.00000000    0.00000000    0.00000000
     atom    5 type  2   force =     0.00000000    0.00000000    0.00000000
     atom    6 type  2   force =     0.00000000    0.00000000    0.00000000
     The SCF correction term to forces
     atom    1 type  1   force =    -0.00000369    0.00001291   -0.00000832
     atom    2 type  2   force =    -0.00000412    0.00000115   -0.00000123
     atom    3 type  2   force =     0.00000339    0.00000646   -0.00000341
     atom    4 type  1   force =    -0.00001971   -0.00002516    0.00000988
     atom    5 type  2   force =    -0.00000655   -0.00000231    0.00000881
     atom    6 type  2   force =    -0.00000405   -0.00000955   -0.00000420

     Total force =     0.007739     Total SCF correction =     0.000041

     init_run     :      2.08s CPU      2.27s WALL (       1 calls)
     electrons    :     14.66s CPU     15.93s WALL (       1 calls)
     forces       :      0.87s CPU      0.96s WALL (       1 calls)

     Called by init_run:
     wfcinit      :      0.23s CPU      0.26s WALL (       1 calls)
     potinit      :      0.66s CPU      0.75s WALL (       1 calls)
     hinit0       :      0.98s CPU      1.02s WALL (       1 calls)

     Called by electrons:
     c_bands      :      6.10s CPU      6.37s WALL (      13 calls)
     sum_band     :      2.00s CPU      2.16s WALL (      13 calls)
     v_of_rho     :      5.33s CPU      6.09s WALL (      14 calls)
     mix_rho      :      1.32s CPU      1.44s WALL (      13 calls)

     Called by c_bands:
     init_us_2    :      0.17s CPU      0.18s WALL (      27 calls)
     init_us_2:cp :      0.17s CPU      0.18s WALL (      27 calls)
     regterg      :      5.78s CPU      6.04s WALL (      13 calls)

     Called by *egterg:
     rdiaghg      :      0.01s CPU      0.01s WALL (      43 calls)
     h_psi        :      5.64s CPU      5.90s WALL (      44 calls)
     g_psi        :      0.02s CPU      0.02s WALL (      30 calls)

     Called by h_psi:
     h_psi:calbec :      0.19s CPU      0.20s WALL (      44 calls)
     vloc_psi     :      5.27s CPU      5.52s WALL (      44 calls)
     add_vuspsi   :      0.15s CPU      0.15s WALL (      44 calls)

     General routines
     calbec       :      0.20s CPU      0.21s WALL (      48 calls)
     fft          :      3.57s CPU      4.09s WALL (     120 calls)
     ffts         :      0.35s CPU      0.40s WALL (      13 calls)
     fftw         :      4.70s CPU      4.95s WALL (     360 calls)

     Parallel routines

     PWSCF        :     17.70s CPU     19.31s WALL


   This run was terminated on:  14: 9:53  12May2025            

=------------------------------------------------------------------------------=
   JOB DONE.
=------------------------------------------------------------------------------=
