
     Program PWSCF v.7.2 starts on 12May2025 at 14: 0:49 

     This program is part of the open-source Quantum ESPRESSO suite
     for quantum simulation of materials; please cite
         "P. Giannozzi et al., J. Phys.:Condens. Matter 21 395502 (2009);
         "P. Giannozzi et al., J. Phys.:Condens. Matter 29 465901 (2017);
         "P. Giannozzi et al., J. Chem. Phys. 152 154105 (2020);
          URL http://www.quantum-espresso.org", 
     in publications or presentations arising from this work. More details at
     http://www.quantum-espresso.org/quote

     Parallel version (MPI), running on     8 processors

     MPI processes distributed on     1 nodes
     205622 MiB available memory on the printing compute node when the environment starts

     Waiting for input...
     Reading input from standard input
Warning: card &CELL ignored
Warning: card / ignored
Warning: card &FCP ignored
Warning: card / ignored
Warning: card &RISM ignored
Warning: card / ignored

     Current dimensions of program PWSCF are:
     Max number of different atomic species (ntypx) = 10
     Max number of k-points (npk) =  40000
     Max angular momentum in pseudopotentials (lmaxx) =  4

     gamma-point specific algorithms are used

     R & G space division:  proc/nbgrp/npool/nimage =       8
     Subspace diagonalization in iterative solution of the eigenvalue problem:
     a serial algorithm will be used


     Parallelization info
     --------------------
     sticks:   dense  smooth     PW     G-vecs:    dense   smooth      PW
     Min        1225    1225    305                91534    91534   11450
     Max        1228    1228    308                91540    91540   11456
     Sum        9809    9809   2449               732287   732287   91623

     Using Slab Decomposition



     bravais-lattice index     =            0
     lattice parameter (alat)  =      22.6767  a.u.
     unit-cell volume          =   11661.1211 (a.u.)^3
     number of atoms/cell      =            6
     number of atomic types    =            2
     number of electrons       =        16.00
     number of Kohn-Sham states=            8
     kinetic-energy cutoff     =      60.0000  Ry
     charge density cutoff     =     240.0000  Ry
     scf convergence threshold =      1.0E-08
     mixing beta               =       0.5000
     number of iterations used =            8  plain     mixing
     Exchange-correlation= PBE
                           (   1   4   3   4   0   0   0)

     celldm(1)=  22.676713  celldm(2)=   0.000000  celldm(3)=   0.000000
     celldm(4)=   0.000000  celldm(5)=   0.000000  celldm(6)=   0.000000

     crystal axes: (cart. coord. in units of alat)
               a(1) = (   1.000000   0.000000   0.000000 )  
               a(2) = (   0.000000   1.000000   0.000000 )  
               a(3) = (   0.000000   0.000000   1.000000 )  

     reciprocal axes: (cart. coord. in units 2 pi/alat)
               b(1) = (  1.000000  0.000000  0.000000 )  
               b(2) = (  0.000000  1.000000  0.000000 )  
               b(3) = (  0.000000  0.000000  1.000000 )  


     PseudoPot. # 1 for O  read from file:
     ./O.upf
     MD5 check sum: 9db02a5ece9d56b81b65a73f8163743d
     Pseudo is Norm-conserving + core correction, Zval =  6.0
     Generated using ONCVPSP code by D. R. Hamann
     Using radial grid of  936 points,  5 beta functions with: 
                l(1) =   0
                l(2) =   0
                l(3) =   1
                l(4) =   1
                l(5) =   2

     PseudoPot. # 2 for H  read from file:
     ./H.upf
     MD5 check sum: e96aa7e3e4a958db16958554ea960e2a
     Pseudo is Norm-conserving, Zval =  1.0
     Generated using ONCVPSP code by D. R. Hamann
     Using radial grid of 1166 points,  3 beta functions with: 
                l(1) =   0
                l(2) =   0
                l(3) =   1

     atomic species   valence    mass     pseudopotential
        O              6.00    15.99900     O ( 1.00)
        H              1.00     1.00800     H ( 1.00)

     No symmetry found



   Cartesian axes

     site n.     atom                  positions (alat units)
         1           O   tau(   1) = (  -0.2503754   0.1086414  -0.0056616  )
         2           H   tau(   2) = (  -0.1718787   0.0966176   0.0129537  )
         3           H   tau(   3) = (  -0.2882844   0.0456469   0.0276401  )
         4           O   tau(   4) = (  -0.0163116   0.0908894   0.0425254  )
         5           H   tau(   5) = (   0.0261601   0.0951935  -0.0257541  )
         6           H   tau(   6) = (   0.0046099   0.1567570   0.0838904  )

     number of k points=     1
                       cart. coord. in units 2pi/alat
        k(    1) = (   0.0000000   0.0000000   0.0000000), wk =   2.0000000

     Dense  grid:   366144 G-vectors     FFT dimensions: ( 120, 120, 120)

     Estimated max dynamical RAM per process >      44.55 MB

     Estimated total dynamical RAM >     356.41 MB

     Check: negative core charge=   -0.000005

     Initial potential from superposition of free atoms

     starting charge      16.0000, renormalised to      16.0000

     negative rho (up, down):  6.056E-04 0.000E+00
     Starting wfcs are   12 randomized atomic wfcs

     total cpu time spent up to now is        2.4 secs

     Self-consistent Calculation

     iteration #  1     ecut=    60.00 Ry     beta= 0.50
     Davidson diagonalization with overlap
     ethr =  1.00E-02,  avg # of iterations =  2.0

     negative rho (up, down):  2.774E-04 0.000E+00

     total cpu time spent up to now is        3.6 secs

     total energy              =     -70.77413337 Ry
     estimated scf accuracy    <       0.86949224 Ry

     iteration #  2     ecut=    60.00 Ry     beta= 0.50
     Davidson diagonalization with overlap
     ethr =  5.43E-03,  avg # of iterations =  2.0

     negative rho (up, down):  1.594E-04 0.000E+00

     total cpu time spent up to now is        4.8 secs

     total energy              =     -71.01452109 Ry
     estimated scf accuracy    <       0.11790152 Ry

     iteration #  3     ecut=    60.00 Ry     beta= 0.50
     Davidson diagonalization with overlap
     ethr =  7.37E-04,  avg # of iterations =  2.0

     negative rho (up, down):  9.336E-07 0.000E+00

     total cpu time spent up to now is        6.0 secs

     total energy              =     -71.01635530 Ry
     estimated scf accuracy    <       0.01831383 Ry

     iteration #  4     ecut=    60.00 Ry     beta= 0.50
     Davidson diagonalization with overlap
     ethr =  1.14E-04,  avg # of iterations =  3.0

     negative rho (up, down):  1.340E-07 0.000E+00

     total cpu time spent up to now is        7.3 secs

     total energy              =     -71.01986392 Ry
     estimated scf accuracy    <       0.01542902 Ry

     iteration #  5     ecut=    60.00 Ry     beta= 0.50
     Davidson diagonalization with overlap
     ethr =  9.64E-05,  avg # of iterations =  2.0

     negative rho (up, down):  2.400E-08 0.000E+00

     total cpu time spent up to now is        8.5 secs

     total energy              =     -71.02109417 Ry
     estimated scf accuracy    <       0.00133832 Ry

     iteration #  6     ecut=    60.00 Ry     beta= 0.50
     Davidson diagonalization with overlap
     ethr =  8.36E-06,  avg # of iterations =  3.0

     total cpu time spent up to now is        9.7 secs

     total energy              =     -71.02129377 Ry
     estimated scf accuracy    <       0.00014523 Ry

     iteration #  7     ecut=    60.00 Ry     beta= 0.50
     Davidson diagonalization with overlap
     ethr =  9.08E-07,  avg # of iterations =  3.0

     total cpu time spent up to now is       11.0 secs

     total energy              =     -71.02135274 Ry
     estimated scf accuracy    <       0.00000706 Ry

     iteration #  8     ecut=    60.00 Ry     beta= 0.50
     Davidson diagonalization with overlap
     ethr =  4.41E-08,  avg # of iterations =  3.0

     total cpu time spent up to now is       12.4 secs

     total energy              =     -71.02134524 Ry
     estimated scf accuracy    <       0.00002973 Ry

     iteration #  9     ecut=    60.00 Ry     beta= 0.50
     Davidson diagonalization with overlap
     ethr =  4.41E-08,  avg # of iterations =  2.0

     total cpu time spent up to now is       13.7 secs

     total energy              =     -71.02134632 Ry
     estimated scf accuracy    <       0.00000307 Ry

     iteration # 10     ecut=    60.00 Ry     beta= 0.50
     Davidson diagonalization with overlap
     ethr =  1.92E-08,  avg # of iterations =  2.0

     total cpu time spent up to now is       15.0 secs

     total energy              =     -71.02134689 Ry
     estimated scf accuracy    <       0.00000007 Ry

     iteration # 11     ecut=    60.00 Ry     beta= 0.50
     Davidson diagonalization with overlap
     ethr =  4.36E-10,  avg # of iterations =  2.0

     total cpu time spent up to now is       16.2 secs

     total energy              =     -71.02134690 Ry
     estimated scf accuracy    <       0.00000003 Ry

     iteration # 12     ecut=    60.00 Ry     beta= 0.50
     Davidson diagonalization with overlap
     ethr =  2.06E-10,  avg # of iterations =  2.0

     total cpu time spent up to now is       17.4 secs

     total energy              =     -71.02134690 Ry
     estimated scf accuracy    <       0.00000002 Ry

     iteration # 13     ecut=    60.00 Ry     beta= 0.50
     Davidson diagonalization with overlap
     ethr =  1.08E-10,  avg # of iterations =  2.0

     total cpu time spent up to now is       18.5 secs

     End of self-consistent calculation

          k = 0.0000 0.0000 0.0000 ( 45812 PWs)   bands (ev):

   -25.9837 -24.3267 -13.7499 -12.2558 -10.0444  -8.4786  -7.7789  -6.3711

     highest occupied level (ev):    -6.3711

!    total energy              =     -71.02134690 Ry
     estimated scf accuracy    <          2.4E-09 Ry

     The total energy is the sum of the following terms:
     one-electron contribution =    -149.27709999 Ry
     hartree contribution      =      77.77479788 Ry
     xc contribution           =     -19.62705188 Ry
     ewald contribution        =      20.10800709 Ry

     convergence has been achieved in  13 iterations

     Forces acting on atoms (cartesian axes, Ry/au):

     atom    1 type  1   force =     0.00055009   -0.00710942    0.00443615
     atom    2 type  2   force =    -0.00295687    0.00139219   -0.00133597
     atom    3 type  2   force =     0.00245437    0.00561681   -0.00321381
     atom    4 type  1   force =    -0.00008025    0.00023250    0.00039093
     atom    5 type  2   force =    -0.00002541   -0.00003910   -0.00023924
     atom    6 type  2   force =     0.00005807   -0.00009298   -0.00003806
     The non-local contrib.  to forces
     atom    1 type  1   force =     0.76101296   -1.62561967    1.10940019
     atom    2 type  2   force =    -0.19945456    0.02503937   -0.04385399
     atom    3 type  2   force =     0.10468239    0.16303603   -0.08524363
     atom    4 type  1   force =     1.29030355    1.56850709   -0.62572664
     atom    5 type  2   force =    -0.11159422   -0.00546797    0.18523176
     atom    6 type  2   force =    -0.05224260   -0.17462362   -0.11620996
     The ionic contribution  to forces
     atom    1 type  1   force =    -4.43984349    3.44128397   -2.81674104
     atom    2 type  2   force =     2.51243416   -0.41688741    0.58487911
     atom    3 type  2   force =    -2.22187786   -2.94843106    1.48577645
     atom    4 type  1   force =     0.56239552   -3.28594057    1.85677015
     atom    5 type  2   force =     2.32237462    0.06841388   -3.29243411
     atom    6 type  2   force =     1.26451705    3.14156118    2.18174944
     The local contribution  to forces
     atom    1 type  1   force =     3.70004508   -1.86970762    1.74383419
     atom    2 type  2   force =    -2.31590733    0.39324973   -0.54240152
     atom    3 type  2   force =     2.11966763    2.79101474   -1.40378462
     atom    4 type  1   force =    -1.81536699    1.76278125   -1.24855239
     atom    5 type  2   force =    -2.21077925   -0.06297124    3.10691298
     atom    6 type  2   force =    -1.21219190   -2.96701095   -2.06561724
     The core correction contribution to forces
     atom    1 type  1   force =    -0.02063093    0.04692071   -0.03208280
     atom    2 type  2   force =     0.00000000    0.00000000    0.00000000
     atom    3 type  2   force =     0.00000000    0.00000000    0.00000000
     atom    4 type  1   force =    -0.03737788   -0.04508228    0.01784797
     atom    5 type  2   force =     0.00000000    0.00000000    0.00000000
     atom    6 type  2   force =     0.00000000    0.00000000    0.00000000
     The Hubbard contrib.    to forces
     atom    1 type  1   force =     0.00000000    0.00000000    0.00000000
     atom    2 type  2   force =     0.00000000    0.00000000    0.00000000
     atom    3 type  2   force =     0.00000000    0.00000000    0.00000000
     atom    4 type  1   force =     0.00000000    0.00000000    0.00000000
     atom    5 type  2   force =     0.00000000    0.00000000    0.00000000
     atom    6 type  2   force =     0.00000000    0.00000000    0.00000000
     The SCF correction term to forces
     atom    1 type  1   force =    -0.00001198    0.00002531   -0.00001754
     atom    2 type  2   force =    -0.00000759    0.00000262   -0.00000272
     atom    3 type  2   force =     0.00000376    0.00000923   -0.00000516
     atom    4 type  1   force =    -0.00001289   -0.00002087    0.00000869
     atom    5 type  2   force =    -0.00000500   -0.00000165    0.00000698
     atom    6 type  2   force =    -0.00000292   -0.00000747   -0.00000345

     Total force =     0.011453     Total SCF correction =     0.000046

     init_run     :      2.07s CPU      2.28s WALL (       1 calls)
     electrons    :     14.71s CPU     16.05s WALL (       1 calls)
     forces       :      0.91s CPU      1.04s WALL (       1 calls)

     Called by init_run:
     wfcinit      :      0.24s CPU      0.26s WALL (       1 calls)
     potinit      :      0.62s CPU      0.75s WALL (       1 calls)
     hinit0       :      0.99s CPU      1.03s WALL (       1 calls)

     Called by electrons:
     c_bands      :      6.15s CPU      6.43s WALL (      13 calls)
     sum_band     :      2.03s CPU      2.18s WALL (      13 calls)
     v_of_rho     :      5.30s CPU      6.12s WALL (      14 calls)
     mix_rho      :      1.32s CPU      1.44s WALL (      13 calls)

     Called by c_bands:
     init_us_2    :      0.17s CPU      0.18s WALL (      27 calls)
     init_us_2:cp :      0.17s CPU      0.18s WALL (      27 calls)
     regterg      :      5.83s CPU      6.09s WALL (      13 calls)

     Called by *egterg:
     rdiaghg      :      0.01s CPU      0.01s WALL (      43 calls)
     h_psi        :      5.69s CPU      5.95s WALL (      44 calls)
     g_psi        :      0.02s CPU      0.02s WALL (      30 calls)

     Called by h_psi:
     h_psi:calbec :      0.20s CPU      0.20s WALL (      44 calls)
     vloc_psi     :      5.31s CPU      5.57s WALL (      44 calls)
     add_vuspsi   :      0.14s CPU      0.15s WALL (      44 calls)

     General routines
     calbec       :      0.21s CPU      0.22s WALL (      48 calls)
     fft          :      3.58s CPU      4.10s WALL (     120 calls)
     ffts         :      0.33s CPU      0.38s WALL (      13 calls)
     fftw         :      4.64s CPU      4.90s WALL (     362 calls)

     Parallel routines

     PWSCF        :     17.79s CPU     19.52s WALL


   This run was terminated on:  14: 1: 8  12May2025            

=------------------------------------------------------------------------------=
   JOB DONE.
=------------------------------------------------------------------------------=
