
     Program PWSCF v.7.2 starts on 12May2025 at 14: 7:19 

     This program is part of the open-source Quantum ESPRESSO suite
     for quantum simulation of materials; please cite
         "P. Giannozzi et al., J. Phys.:Condens. Matter 21 395502 (2009);
         "P. Giannozzi et al., J. Phys.:Condens. Matter 29 465901 (2017);
         "P. Giannozzi et al., J. Chem. Phys. 152 154105 (2020);
          URL http://www.quantum-espresso.org", 
     in publications or presentations arising from this work. More details at
     http://www.quantum-espresso.org/quote

     Parallel version (MPI), running on     8 processors

     MPI processes distributed on     1 nodes
     206666 MiB available memory on the printing compute node when the environment starts

     Waiting for input...
     Reading input from standard input
Warning: card &CELL ignored
Warning: card / ignored
Warning: card &FCP ignored
Warning: card / ignored
Warning: card &RISM ignored
Warning: card / ignored

     Current dimensions of program PWSCF are:
     Max number of different atomic species (ntypx) = 10
     Max number of k-points (npk) =  40000
     Max angular momentum in pseudopotentials (lmaxx) =  4

     gamma-point specific algorithms are used

     R & G space division:  proc/nbgrp/npool/nimage =       8
     Subspace diagonalization in iterative solution of the eigenvalue problem:
     a serial algorithm will be used


     Parallelization info
     --------------------
     sticks:   dense  smooth     PW     G-vecs:    dense   smooth      PW
     Min        1225    1225    305                91534    91534   11450
     Max        1228    1228    308                91540    91540   11456
     Sum        9809    9809   2449               732287   732287   91623

     Using Slab Decomposition



     bravais-lattice index     =            0
     lattice parameter (alat)  =      22.6767  a.u.
     unit-cell volume          =   11661.1211 (a.u.)^3
     number of atoms/cell      =            6
     number of atomic types    =            2
     number of electrons       =        16.00
     number of Kohn-Sham states=            8
     kinetic-energy cutoff     =      60.0000  Ry
     charge density cutoff     =     240.0000  Ry
     scf convergence threshold =      1.0E-08
     mixing beta               =       0.5000
     number of iterations used =            8  plain     mixing
     Exchange-correlation= PBE
                           (   1   4   3   4   0   0   0)

     celldm(1)=  22.676713  celldm(2)=   0.000000  celldm(3)=   0.000000
     celldm(4)=   0.000000  celldm(5)=   0.000000  celldm(6)=   0.000000

     crystal axes: (cart. coord. in units of alat)
               a(1) = (   1.000000   0.000000   0.000000 )  
               a(2) = (   0.000000   1.000000   0.000000 )  
               a(3) = (   0.000000   0.000000   1.000000 )  

     reciprocal axes: (cart. coord. in units 2 pi/alat)
               b(1) = (  1.000000  0.000000  0.000000 )  
               b(2) = (  0.000000  1.000000  0.000000 )  
               b(3) = (  0.000000  0.000000  1.000000 )  


     PseudoPot. # 1 for O  read from file:
     ./O.upf
     MD5 check sum: 9db02a5ece9d56b81b65a73f8163743d
     Pseudo is Norm-conserving + core correction, Zval =  6.0
     Generated using ONCVPSP code by D. R. Hamann
     Using radial grid of  936 points,  5 beta functions with: 
                l(1) =   0
                l(2) =   0
                l(3) =   1
                l(4) =   1
                l(5) =   2

     PseudoPot. # 2 for H  read from file:
     ./H.upf
     MD5 check sum: e96aa7e3e4a958db16958554ea960e2a
     Pseudo is Norm-conserving, Zval =  1.0
     Generated using ONCVPSP code by D. R. Hamann
     Using radial grid of 1166 points,  3 beta functions with: 
                l(1) =   0
                l(2) =   0
                l(3) =   1

     atomic species   valence    mass     pseudopotential
        O              6.00    15.99900     O ( 1.00)
        H              1.00     1.00800     H ( 1.00)

     No symmetry found



   Cartesian axes

     site n.     atom                  positions (alat units)
         1           O   tau(   1) = (  -0.2503754   0.1086414  -0.0048282  )
         2           H   tau(   2) = (  -0.1718787   0.0966176   0.0129537  )
         3           H   tau(   3) = (  -0.2882844   0.0456469   0.0276401  )
         4           O   tau(   4) = (  -0.0163116   0.0908894   0.0425254  )
         5           H   tau(   5) = (   0.0253267   0.0951935  -0.0257541  )
         6           H   tau(   6) = (   0.0046099   0.1567570   0.0838904  )

     number of k points=     1
                       cart. coord. in units 2pi/alat
        k(    1) = (   0.0000000   0.0000000   0.0000000), wk =   2.0000000

     Dense  grid:   366144 G-vectors     FFT dimensions: ( 120, 120, 120)

     Estimated max dynamical RAM per process >      44.55 MB

     Estimated total dynamical RAM >     356.41 MB

     Check: negative core charge=   -0.000005

     Initial potential from superposition of free atoms

     starting charge      16.0000, renormalised to      16.0000

     negative rho (up, down):  6.065E-04 0.000E+00
     Starting wfcs are   12 randomized atomic wfcs

     total cpu time spent up to now is        2.4 secs

     Self-consistent Calculation

     iteration #  1     ecut=    60.00 Ry     beta= 0.50
     Davidson diagonalization with overlap
     ethr =  1.00E-02,  avg # of iterations =  2.0

     negative rho (up, down):  2.778E-04 0.000E+00

     total cpu time spent up to now is        3.6 secs

     total energy              =     -70.77371481 Ry
     estimated scf accuracy    <       0.87363195 Ry

     iteration #  2     ecut=    60.00 Ry     beta= 0.50
     Davidson diagonalization with overlap
     ethr =  5.46E-03,  avg # of iterations =  2.0

     negative rho (up, down):  1.594E-04 0.000E+00

     total cpu time spent up to now is        4.8 secs

     total energy              =     -71.01466212 Ry
     estimated scf accuracy    <       0.11667047 Ry

     iteration #  3     ecut=    60.00 Ry     beta= 0.50
     Davidson diagonalization with overlap
     ethr =  7.29E-04,  avg # of iterations =  2.0

     negative rho (up, down):  9.526E-07 0.000E+00

     total cpu time spent up to now is        5.9 secs

     total energy              =     -71.01643723 Ry
     estimated scf accuracy    <       0.01819062 Ry

     iteration #  4     ecut=    60.00 Ry     beta= 0.50
     Davidson diagonalization with overlap
     ethr =  1.14E-04,  avg # of iterations =  3.0

     negative rho (up, down):  1.412E-07 0.000E+00

     total cpu time spent up to now is        7.2 secs

     total energy              =     -71.02001030 Ry
     estimated scf accuracy    <       0.01455309 Ry

     iteration #  5     ecut=    60.00 Ry     beta= 0.50
     Davidson diagonalization with overlap
     ethr =  9.10E-05,  avg # of iterations =  2.0

     negative rho (up, down):  6.503E-08 0.000E+00

     total cpu time spent up to now is        8.4 secs

     total energy              =     -71.02119773 Ry
     estimated scf accuracy    <       0.00138405 Ry

     iteration #  6     ecut=    60.00 Ry     beta= 0.50
     Davidson diagonalization with overlap
     ethr =  8.65E-06,  avg # of iterations =  2.0

     total cpu time spent up to now is        9.6 secs

     total energy              =     -71.02118003 Ry
     estimated scf accuracy    <       0.00045057 Ry

     iteration #  7     ecut=    60.00 Ry     beta= 0.50
     Davidson diagonalization with overlap
     ethr =  2.82E-06,  avg # of iterations =  2.0

     total cpu time spent up to now is       10.8 secs

     total energy              =     -71.02133374 Ry
     estimated scf accuracy    <       0.00001597 Ry

     iteration #  8     ecut=    60.00 Ry     beta= 0.50
     Davidson diagonalization with overlap
     ethr =  9.98E-08,  avg # of iterations =  3.0

     total cpu time spent up to now is       12.1 secs

     total energy              =     -71.02133705 Ry
     estimated scf accuracy    <       0.00002302 Ry

     iteration #  9     ecut=    60.00 Ry     beta= 0.50
     Davidson diagonalization with overlap
     ethr =  9.98E-08,  avg # of iterations =  1.0

     total cpu time spent up to now is       13.2 secs

     total energy              =     -71.02132963 Ry
     estimated scf accuracy    <       0.00001557 Ry

     iteration # 10     ecut=    60.00 Ry     beta= 0.50
     Davidson diagonalization with overlap
     ethr =  9.73E-08,  avg # of iterations =  2.0

     total cpu time spent up to now is       14.5 secs

     total energy              =     -71.02133301 Ry
     estimated scf accuracy    <       0.00000011 Ry

     iteration # 11     ecut=    60.00 Ry     beta= 0.50
     Davidson diagonalization with overlap
     ethr =  6.59E-10,  avg # of iterations =  2.0

     total cpu time spent up to now is       15.6 secs

     End of self-consistent calculation

          k = 0.0000 0.0000 0.0000 ( 45812 PWs)   bands (ev):

   -26.0085 -24.3550 -13.7866 -12.3069 -10.0370  -8.4675  -7.7810  -6.3782

     highest occupied level (ev):    -6.3782

!    total energy              =     -71.02133302 Ry
     estimated scf accuracy    <          8.5E-09 Ry

     The total energy is the sum of the following terms:
     one-electron contribution =    -149.44407730 Ry
     hartree contribution      =      77.85632278 Ry
     xc contribution           =     -19.63810963 Ry
     ewald contribution        =      20.20453114 Ry

     convergence has been achieved in  11 iterations

     Forces acting on atoms (cartesian axes, Ry/au):

     atom    1 type  1   force =     0.00007371    0.00014083   -0.00024630
     atom    2 type  2   force =    -0.00010509    0.00005075    0.00028735
     atom    3 type  2   force =    -0.00007318   -0.00031455    0.00006964
     atom    4 type  1   force =    -0.00553908   -0.00040373    0.00892034
     atom    5 type  2   force =     0.00547435    0.00083296   -0.00851110
     atom    6 type  2   force =     0.00016929   -0.00030627   -0.00051994
     The non-local contrib.  to forces
     atom    1 type  1   force =     0.76294204   -1.63907174    1.08139158
     atom    2 type  2   force =    -0.20157427    0.02516566   -0.04224707
     atom    3 type  2   force =     0.10682039    0.16619153   -0.08473974
     atom    4 type  1   force =     1.28141520    1.57076097   -0.63959734
     atom    5 type  2   force =    -0.11212371   -0.00564841    0.18987156
     atom    6 type  2   force =    -0.05223187   -0.17458535   -0.11631507
     The ionic contribution  to forces
     atom    1 type  1   force =    -4.44909301    3.48083156   -2.75899216
     atom    2 type  2   force =     2.53488264   -0.42043538    0.55460471
     atom    3 type  2   force =    -2.24354034   -2.98412929    1.46729487
     atom    4 type  1   force =     0.57388125   -3.28947561    1.89981892
     atom    5 type  2   force =     2.31709577    0.07111343   -3.34456268
     atom    6 type  2   force =     1.26677368    3.14209528    2.18183635
     The local contribution  to forces
     atom    1 type  1   force =     3.70689712   -1.88857145    1.70830911
     atom    2 type  2   force =    -2.33340154    0.39534648   -0.51211500
     atom    3 type  2   force =     2.13667696    2.81765903   -1.38253346
     atom    4 type  1   force =    -1.82389087    1.76344752   -1.26920153
     atom    5 type  2   force =    -2.19947233   -0.06461376    3.14614772
     atom    6 type  2   force =    -1.21434527   -2.96780285   -2.06608268
     The core correction contribution to forces
     atom    1 type  1   force =    -0.02070192    0.04704934   -0.03104743
     atom    2 type  2   force =     0.00000000    0.00000000    0.00000000
     atom    3 type  2   force =     0.00000000    0.00000000    0.00000000
     atom    4 type  1   force =    -0.03689433   -0.04512781    0.01786931
     atom    5 type  2   force =     0.00000000    0.00000000    0.00000000
     atom    6 type  2   force =     0.00000000    0.00000000    0.00000000
     The Hubbard contrib.    to forces
     atom    1 type  1   force =     0.00000000    0.00000000    0.00000000
     atom    2 type  2   force =     0.00000000    0.00000000    0.00000000
     atom    3 type  2   force =     0.00000000    0.00000000    0.00000000
     atom    4 type  1   force =     0.00000000    0.00000000    0.00000000
     atom    5 type  2   force =     0.00000000    0.00000000    0.00000000
     atom    6 type  2   force =     0.00000000    0.00000000    0.00000000
     The SCF correction term to forces
     atom    1 type  1   force =     0.00005769   -0.00007725    0.00005408
     atom    2 type  2   force =     0.00001629   -0.00000639    0.00000619
     atom    3 type  2   force =    -0.00000198   -0.00001621    0.00000944
     atom    4 type  1   force =    -0.00002211    0.00001081   -0.00000754
     atom    5 type  2   force =     0.00000283    0.00000133   -0.00000624
     atom    6 type  2   force =     0.00000095    0.00000627    0.00000293

     Total force =     0.014636     Total SCF correction =     0.000117

     init_run     :      2.09s CPU      2.26s WALL (       1 calls)
     electrons    :     12.15s CPU     13.21s WALL (       1 calls)
     forces       :      0.88s CPU      0.97s WALL (       1 calls)

     Called by init_run:
     wfcinit      :      0.23s CPU      0.26s WALL (       1 calls)
     potinit      :      0.65s CPU      0.75s WALL (       1 calls)
     hinit0       :      0.99s CPU      1.02s WALL (       1 calls)

     Called by electrons:
     c_bands      :      4.96s CPU      5.20s WALL (      11 calls)
     sum_band     :      1.72s CPU      1.85s WALL (      11 calls)
     v_of_rho     :      4.58s CPU      5.24s WALL (      12 calls)
     mix_rho      :      1.04s CPU      1.12s WALL (      11 calls)

     Called by c_bands:
     init_us_2    :      0.14s CPU      0.15s WALL (      23 calls)
     init_us_2:cp :      0.14s CPU      0.15s WALL (      23 calls)
     regterg      :      4.69s CPU      4.91s WALL (      11 calls)

     Called by *egterg:
     rdiaghg      :      0.01s CPU      0.01s WALL (      34 calls)
     h_psi        :      4.62s CPU      4.85s WALL (      35 calls)
     g_psi        :      0.01s CPU      0.01s WALL (      23 calls)

     Called by h_psi:
     h_psi:calbec :      0.16s CPU      0.17s WALL (      35 calls)
     vloc_psi     :      4.31s CPU      4.53s WALL (      35 calls)
     add_vuspsi   :      0.11s CPU      0.12s WALL (      35 calls)

     General routines
     calbec       :      0.18s CPU      0.19s WALL (      39 calls)
     fft          :      3.22s CPU      3.65s WALL (     104 calls)
     ffts         :      0.28s CPU      0.32s WALL (      11 calls)
     fftw         :      3.83s CPU      4.06s WALL (     300 calls)

     Parallel routines

     PWSCF        :     15.22s CPU     16.59s WALL


   This run was terminated on:  14: 7:35  12May2025            

=------------------------------------------------------------------------------=
   JOB DONE.
=------------------------------------------------------------------------------=
