
     Program PWSCF v.7.2 starts on 12May2025 at 14: 6:21 

     This program is part of the open-source Quantum ESPRESSO suite
     for quantum simulation of materials; please cite
         "P. Giannozzi et al., J. Phys.:Condens. Matter 21 395502 (2009);
         "P. Giannozzi et al., J. Phys.:Condens. Matter 29 465901 (2017);
         "P. Giannozzi et al., J. Chem. Phys. 152 154105 (2020);
          URL http://www.quantum-espresso.org", 
     in publications or presentations arising from this work. More details at
     http://www.quantum-espresso.org/quote

     Parallel version (MPI), running on     8 processors

     MPI processes distributed on     1 nodes
     206678 MiB available memory on the printing compute node when the environment starts

     Waiting for input...
     Reading input from standard input
Warning: card &CELL ignored
Warning: card / ignored
Warning: card &FCP ignored
Warning: card / ignored
Warning: card &RISM ignored
Warning: card / ignored

     Current dimensions of program PWSCF are:
     Max number of different atomic species (ntypx) = 10
     Max number of k-points (npk) =  40000
     Max angular momentum in pseudopotentials (lmaxx) =  4

     gamma-point specific algorithms are used

     R & G space division:  proc/nbgrp/npool/nimage =       8
     Subspace diagonalization in iterative solution of the eigenvalue problem:
     a serial algorithm will be used


     Parallelization info
     --------------------
     sticks:   dense  smooth     PW     G-vecs:    dense   smooth      PW
     Min        1225    1225    305                91534    91534   11450
     Max        1228    1228    308                91540    91540   11456
     Sum        9809    9809   2449               732287   732287   91623

     Using Slab Decomposition



     bravais-lattice index     =            0
     lattice parameter (alat)  =      22.6767  a.u.
     unit-cell volume          =   11661.1211 (a.u.)^3
     number of atoms/cell      =            6
     number of atomic types    =            2
     number of electrons       =        16.00
     number of Kohn-Sham states=            8
     kinetic-energy cutoff     =      60.0000  Ry
     charge density cutoff     =     240.0000  Ry
     scf convergence threshold =      1.0E-08
     mixing beta               =       0.5000
     number of iterations used =            8  plain     mixing
     Exchange-correlation= PBE
                           (   1   4   3   4   0   0   0)

     celldm(1)=  22.676713  celldm(2)=   0.000000  celldm(3)=   0.000000
     celldm(4)=   0.000000  celldm(5)=   0.000000  celldm(6)=   0.000000

     crystal axes: (cart. coord. in units of alat)
               a(1) = (   1.000000   0.000000   0.000000 )  
               a(2) = (   0.000000   1.000000   0.000000 )  
               a(3) = (   0.000000   0.000000   1.000000 )  

     reciprocal axes: (cart. coord. in units 2 pi/alat)
               b(1) = (  1.000000  0.000000  0.000000 )  
               b(2) = (  0.000000  1.000000  0.000000 )  
               b(3) = (  0.000000  0.000000  1.000000 )  


     PseudoPot. # 1 for O  read from file:
     ./O.upf
     MD5 check sum: 9db02a5ece9d56b81b65a73f8163743d
     Pseudo is Norm-conserving + core correction, Zval =  6.0
     Generated using ONCVPSP code by D. R. Hamann
     Using radial grid of  936 points,  5 beta functions with: 
                l(1) =   0
                l(2) =   0
                l(3) =   1
                l(4) =   1
                l(5) =   2

     PseudoPot. # 2 for H  read from file:
     ./H.upf
     MD5 check sum: e96aa7e3e4a958db16958554ea960e2a
     Pseudo is Norm-conserving, Zval =  1.0
     Generated using ONCVPSP code by D. R. Hamann
     Using radial grid of 1166 points,  3 beta functions with: 
                l(1) =   0
                l(2) =   0
                l(3) =   1

     atomic species   valence    mass     pseudopotential
        O              6.00    15.99900     O ( 1.00)
        H              1.00     1.00800     H ( 1.00)

     No symmetry found



   Cartesian axes

     site n.     atom                  positions (alat units)
         1           O   tau(   1) = (  -0.2503754   0.1086414  -0.0048282  )
         2           H   tau(   2) = (  -0.1718787   0.0966176   0.0129537  )
         3           H   tau(   3) = (  -0.2882844   0.0456469   0.0276401  )
         4           O   tau(   4) = (  -0.0163116   0.0917227   0.0425254  )
         5           H   tau(   5) = (   0.0261601   0.0951935  -0.0257541  )
         6           H   tau(   6) = (   0.0046099   0.1567570   0.0838904  )

     number of k points=     1
                       cart. coord. in units 2pi/alat
        k(    1) = (   0.0000000   0.0000000   0.0000000), wk =   2.0000000

     Dense  grid:   366144 G-vectors     FFT dimensions: ( 120, 120, 120)

     Estimated max dynamical RAM per process >      44.55 MB

     Estimated total dynamical RAM >     356.41 MB

     Check: negative core charge=   -0.000005

     Initial potential from superposition of free atoms

     starting charge      16.0000, renormalised to      16.0000

     negative rho (up, down):  6.071E-04 0.000E+00
     Starting wfcs are   12 randomized atomic wfcs

     total cpu time spent up to now is        2.4 secs

     Self-consistent Calculation

     iteration #  1     ecut=    60.00 Ry     beta= 0.50
     Davidson diagonalization with overlap
     ethr =  1.00E-02,  avg # of iterations =  2.0

     negative rho (up, down):  2.780E-04 0.000E+00

     total cpu time spent up to now is        3.6 secs

     total energy              =     -70.77336811 Ry
     estimated scf accuracy    <       0.87524312 Ry

     iteration #  2     ecut=    60.00 Ry     beta= 0.50
     Davidson diagonalization with overlap
     ethr =  5.47E-03,  avg # of iterations =  2.0

     negative rho (up, down):  1.594E-04 0.000E+00

     total cpu time spent up to now is        4.8 secs

     total energy              =     -71.01461873 Ry
     estimated scf accuracy    <       0.11639512 Ry

     iteration #  3     ecut=    60.00 Ry     beta= 0.50
     Davidson diagonalization with overlap
     ethr =  7.27E-04,  avg # of iterations =  2.0

     negative rho (up, down):  9.735E-07 0.000E+00

     total cpu time spent up to now is        6.0 secs

     total energy              =     -71.01639090 Ry
     estimated scf accuracy    <       0.01815451 Ry

     iteration #  4     ecut=    60.00 Ry     beta= 0.50
     Davidson diagonalization with overlap
     ethr =  1.13E-04,  avg # of iterations =  3.0

     negative rho (up, down):  1.407E-07 0.000E+00

     total cpu time spent up to now is        7.3 secs

     total energy              =     -71.01994113 Ry
     estimated scf accuracy    <       0.01446211 Ry

     iteration #  5     ecut=    60.00 Ry     beta= 0.50
     Davidson diagonalization with overlap
     ethr =  9.04E-05,  avg # of iterations =  2.0

     negative rho (up, down):  5.900E-08 0.000E+00

     total cpu time spent up to now is        8.4 secs

     total energy              =     -71.02111440 Ry
     estimated scf accuracy    <       0.00136999 Ry

     iteration #  6     ecut=    60.00 Ry     beta= 0.50
     Davidson diagonalization with overlap
     ethr =  8.56E-06,  avg # of iterations =  2.0

     total cpu time spent up to now is        9.6 secs

     total energy              =     -71.02110803 Ry
     estimated scf accuracy    <       0.00042831 Ry

     iteration #  7     ecut=    60.00 Ry     beta= 0.50
     Davidson diagonalization with overlap
     ethr =  2.68E-06,  avg # of iterations =  2.0

     total cpu time spent up to now is       10.9 secs

     total energy              =     -71.02125863 Ry
     estimated scf accuracy    <       0.00001683 Ry

     iteration #  8     ecut=    60.00 Ry     beta= 0.50
     Davidson diagonalization with overlap
     ethr =  1.05E-07,  avg # of iterations =  3.0

     total cpu time spent up to now is       12.1 secs

     total energy              =     -71.02126146 Ry
     estimated scf accuracy    <       0.00002547 Ry

     iteration #  9     ecut=    60.00 Ry     beta= 0.50
     Davidson diagonalization with overlap
     ethr =  1.05E-07,  avg # of iterations =  1.0

     total cpu time spent up to now is       13.3 secs

     total energy              =     -71.02125322 Ry
     estimated scf accuracy    <       0.00001697 Ry

     iteration # 10     ecut=    60.00 Ry     beta= 0.50
     Davidson diagonalization with overlap
     ethr =  1.05E-07,  avg # of iterations =  2.0

     total cpu time spent up to now is       14.5 secs

     total energy              =     -71.02125708 Ry
     estimated scf accuracy    <       0.00000019 Ry

     iteration # 11     ecut=    60.00 Ry     beta= 0.50
     Davidson diagonalization with overlap
     ethr =  1.21E-09,  avg # of iterations =  2.0

     total cpu time spent up to now is       15.8 secs

     total energy              =     -71.02125709 Ry
     estimated scf accuracy    <       0.00000001 Ry

     iteration # 12     ecut=    60.00 Ry     beta= 0.50
     Davidson diagonalization with overlap
     ethr =  8.29E-11,  avg # of iterations =  3.0

     total cpu time spent up to now is       17.1 secs

     total energy              =     -71.02125710 Ry
     estimated scf accuracy    <       0.00000002 Ry

     iteration # 13     ecut=    60.00 Ry     beta= 0.50
     Davidson diagonalization with overlap
     ethr =  8.29E-11,  avg # of iterations =  2.0

     total cpu time spent up to now is       18.2 secs

     End of self-consistent calculation

          k = 0.0000 0.0000 0.0000 ( 45812 PWs)   bands (ev):

   -26.0174 -24.3524 -13.8222 -12.3052 -10.0220  -8.4578  -7.7839  -6.3754

     highest occupied level (ev):    -6.3754

!    total energy              =     -71.02125710 Ry
     estimated scf accuracy    <          3.9E-10 Ry

     The total energy is the sum of the following terms:
     one-electron contribution =    -149.47510547 Ry
     hartree contribution      =      77.87233578 Ry
     xc contribution           =     -19.64116312 Ry
     ewald contribution        =      20.22267570 Ry

     convergence has been achieved in  13 iterations

     Forces acting on atoms (cartesian axes, Ry/au):

     atom    1 type  1   force =     0.00011041    0.00002938   -0.00020758
     atom    2 type  2   force =    -0.00007907    0.00029236    0.00018490
     atom    3 type  2   force =    -0.00010072   -0.00030635    0.00007103
     atom    4 type  1   force =    -0.00543154   -0.01393570   -0.00708991
     atom    5 type  2   force =     0.00065363    0.00119047    0.00023404
     atom    6 type  2   force =     0.00484729    0.01272984    0.00680752
     The non-local contrib.  to forces
     atom    1 type  1   force =     0.76270717   -1.63953501    1.08150410
     atom    2 type  2   force =    -0.20161370    0.02514267   -0.04223802
     atom    3 type  2   force =     0.10681475    0.16618734   -0.08473876
     atom    4 type  1   force =     1.30164265    1.55429279   -0.61629542
     atom    5 type  2   force =    -0.11168952   -0.00307204    0.18571981
     atom    6 type  2   force =    -0.05425416   -0.17924145   -0.12080137
     The ionic contribution  to forces
     atom    1 type  1   force =    -4.44893558    3.47269856   -2.75955580
     atom    2 type  2   force =     2.53516845   -0.42524387    0.55428945
     atom    3 type  2   force =    -2.24289513   -2.98488097    1.46727490
     atom    4 type  1   force =     0.54221209   -3.27348329    1.80708492
     atom    5 type  2   force =     2.32502692    0.03149374   -3.29785467
     atom    6 type  2   force =     1.28942326    3.17941582    2.22876121
     The local contribution  to forces
     atom    1 type  1   force =     3.70705774   -1.88019521    1.70886369
     atom    2 type  2   force =    -2.33361531    0.40039566   -0.51190355
     atom    3 type  2   force =     2.13599652    2.81838827   -1.38250164
     atom    4 type  1   force =    -1.81173230    1.74951052   -1.21582499
     atom    5 type  2   force =    -2.21266354   -0.02722854    3.11232895
     atom    6 type  2   force =    -1.23030242   -2.98743933   -2.10118785
     The core correction contribution to forces
     atom    1 type  1   force =    -0.02070499    0.04706535   -0.03105863
     atom    2 type  2   force =     0.00000000    0.00000000    0.00000000
     atom    3 type  2   force =     0.00000000    0.00000000    0.00000000
     atom    4 type  1   force =    -0.03752931   -0.04424827    0.01790646
     atom    5 type  2   force =     0.00000000    0.00000000    0.00000000
     atom    6 type  2   force =     0.00000000    0.00000000    0.00000000
     The Hubbard contrib.    to forces
     atom    1 type  1   force =     0.00000000    0.00000000    0.00000000
     atom    2 type  2   force =     0.00000000    0.00000000    0.00000000
     atom    3 type  2   force =     0.00000000    0.00000000    0.00000000
     atom    4 type  1   force =     0.00000000    0.00000000    0.00000000
     atom    5 type  2   force =     0.00000000    0.00000000    0.00000000
     atom    6 type  2   force =     0.00000000    0.00000000    0.00000000
     The SCF correction term to forces
     atom    1 type  1   force =     0.00000420   -0.00000217    0.00000203
     atom    2 type  2   force =    -0.00000037    0.00000004   -0.00000002
     atom    3 type  2   force =     0.00000129    0.00000116   -0.00000051
     atom    4 type  1   force =    -0.00000653   -0.00000532    0.00000209
     atom    5 type  2   force =    -0.00000210   -0.00000055    0.00000293
     atom    6 type  2   force =    -0.00000124   -0.00000305   -0.00000151

     Total force =     0.022540     Total SCF correction =     0.000011

     init_run     :      2.12s CPU      2.30s WALL (       1 calls)
     electrons    :     14.56s CPU     15.78s WALL (       1 calls)
     forces       :      0.86s CPU      0.97s WALL (       1 calls)

     Called by init_run:
     wfcinit      :      0.24s CPU      0.26s WALL (       1 calls)
     potinit      :      0.65s CPU      0.75s WALL (       1 calls)
     hinit0       :      1.02s CPU      1.05s WALL (       1 calls)

     Called by electrons:
     c_bands      :      5.92s CPU      6.18s WALL (      13 calls)
     sum_band     :      2.07s CPU      2.19s WALL (      13 calls)
     v_of_rho     :      5.35s CPU      6.13s WALL (      14 calls)
     mix_rho      :      1.34s CPU      1.45s WALL (      13 calls)

     Called by c_bands:
     init_us_2    :      0.17s CPU      0.18s WALL (      27 calls)
     init_us_2:cp :      0.17s CPU      0.18s WALL (      27 calls)
     regterg      :      5.61s CPU      5.84s WALL (      13 calls)

     Called by *egterg:
     rdiaghg      :      0.01s CPU      0.01s WALL (      41 calls)
     h_psi        :      5.49s CPU      5.73s WALL (      42 calls)
     g_psi        :      0.02s CPU      0.02s WALL (      28 calls)

     Called by h_psi:
     h_psi:calbec :      0.20s CPU      0.21s WALL (      42 calls)
     vloc_psi     :      5.11s CPU      5.34s WALL (      42 calls)
     add_vuspsi   :      0.14s CPU      0.15s WALL (      42 calls)

     General routines
     calbec       :      0.22s CPU      0.23s WALL (      46 calls)
     fft          :      3.65s CPU      4.17s WALL (     120 calls)
     ffts         :      0.31s CPU      0.35s WALL (      13 calls)
     fftw         :      4.67s CPU      4.89s WALL (     352 calls)

     Parallel routines

     PWSCF        :     17.64s CPU     19.20s WALL


   This run was terminated on:  14: 6:40  12May2025            

=------------------------------------------------------------------------------=
   JOB DONE.
=------------------------------------------------------------------------------=
