
     Program PWSCF v.7.2 starts on 12May2025 at 14: 1:30 

     This program is part of the open-source Quantum ESPRESSO suite
     for quantum simulation of materials; please cite
         "P. Giannozzi et al., J. Phys.:Condens. Matter 21 395502 (2009);
         "P. Giannozzi et al., J. Phys.:Condens. Matter 29 465901 (2017);
         "P. Giannozzi et al., J. Chem. Phys. 152 154105 (2020);
          URL http://www.quantum-espresso.org", 
     in publications or presentations arising from this work. More details at
     http://www.quantum-espresso.org/quote

     Parallel version (MPI), running on     8 processors

     MPI processes distributed on     1 nodes
     205617 MiB available memory on the printing compute node when the environment starts

     Waiting for input...
     Reading input from standard input
Warning: card &CELL ignored
Warning: card / ignored
Warning: card &FCP ignored
Warning: card / ignored
Warning: card &RISM ignored
Warning: card / ignored

     Current dimensions of program PWSCF are:
     Max number of different atomic species (ntypx) = 10
     Max number of k-points (npk) =  40000
     Max angular momentum in pseudopotentials (lmaxx) =  4

     gamma-point specific algorithms are used

     R & G space division:  proc/nbgrp/npool/nimage =       8
     Subspace diagonalization in iterative solution of the eigenvalue problem:
     a serial algorithm will be used


     Parallelization info
     --------------------
     sticks:   dense  smooth     PW     G-vecs:    dense   smooth      PW
     Min        1225    1225    305                91534    91534   11450
     Max        1228    1228    308                91540    91540   11456
     Sum        9809    9809   2449               732287   732287   91623

     Using Slab Decomposition



     bravais-lattice index     =            0
     lattice parameter (alat)  =      22.6767  a.u.
     unit-cell volume          =   11661.1211 (a.u.)^3
     number of atoms/cell      =            6
     number of atomic types    =            2
     number of electrons       =        16.00
     number of Kohn-Sham states=            8
     kinetic-energy cutoff     =      60.0000  Ry
     charge density cutoff     =     240.0000  Ry
     scf convergence threshold =      1.0E-08
     mixing beta               =       0.5000
     number of iterations used =            8  plain     mixing
     Exchange-correlation= PBE
                           (   1   4   3   4   0   0   0)

     celldm(1)=  22.676713  celldm(2)=   0.000000  celldm(3)=   0.000000
     celldm(4)=   0.000000  celldm(5)=   0.000000  celldm(6)=   0.000000

     crystal axes: (cart. coord. in units of alat)
               a(1) = (   1.000000   0.000000   0.000000 )  
               a(2) = (   0.000000   1.000000   0.000000 )  
               a(3) = (   0.000000   0.000000   1.000000 )  

     reciprocal axes: (cart. coord. in units 2 pi/alat)
               b(1) = (  1.000000  0.000000  0.000000 )  
               b(2) = (  0.000000  1.000000  0.000000 )  
               b(3) = (  0.000000  0.000000  1.000000 )  


     PseudoPot. # 1 for O  read from file:
     ./O.upf
     MD5 check sum: 9db02a5ece9d56b81b65a73f8163743d
     Pseudo is Norm-conserving + core correction, Zval =  6.0
     Generated using ONCVPSP code by D. R. Hamann
     Using radial grid of  936 points,  5 beta functions with: 
                l(1) =   0
                l(2) =   0
                l(3) =   1
                l(4) =   1
                l(5) =   2

     PseudoPot. # 2 for H  read from file:
     ./H.upf
     MD5 check sum: e96aa7e3e4a958db16958554ea960e2a
     Pseudo is Norm-conserving, Zval =  1.0
     Generated using ONCVPSP code by D. R. Hamann
     Using radial grid of 1166 points,  3 beta functions with: 
                l(1) =   0
                l(2) =   0
                l(3) =   1

     atomic species   valence    mass     pseudopotential
        O              6.00    15.99900     O ( 1.00)
        H              1.00     1.00800     H ( 1.00)

     No symmetry found



   Cartesian axes

     site n.     atom                  positions (alat units)
         1           O   tau(   1) = (  -0.2503754   0.1086414  -0.0048282  )
         2           H   tau(   2) = (  -0.1727121   0.0966176   0.0129537  )
         3           H   tau(   3) = (  -0.2882844   0.0456469   0.0276401  )
         4           O   tau(   4) = (  -0.0163116   0.0908894   0.0425254  )
         5           H   tau(   5) = (   0.0261601   0.0951935  -0.0257541  )
         6           H   tau(   6) = (   0.0046099   0.1567570   0.0838904  )

     number of k points=     1
                       cart. coord. in units 2pi/alat
        k(    1) = (   0.0000000   0.0000000   0.0000000), wk =   2.0000000

     Dense  grid:   366144 G-vectors     FFT dimensions: ( 120, 120, 120)

     Estimated max dynamical RAM per process >      44.55 MB

     Estimated total dynamical RAM >     356.41 MB

     Check: negative core charge=   -0.000005

     Initial potential from superposition of free atoms

     starting charge      16.0000, renormalised to      16.0000

     negative rho (up, down):  6.064E-04 0.000E+00
     Starting wfcs are   12 randomized atomic wfcs

     total cpu time spent up to now is        2.4 secs

     Self-consistent Calculation

     iteration #  1     ecut=    60.00 Ry     beta= 0.50
     Davidson diagonalization with overlap
     ethr =  1.00E-02,  avg # of iterations =  2.0

     negative rho (up, down):  2.777E-04 0.000E+00

     total cpu time spent up to now is        3.6 secs

     total energy              =     -70.77306160 Ry
     estimated scf accuracy    <       0.87577252 Ry

     iteration #  2     ecut=    60.00 Ry     beta= 0.50
     Davidson diagonalization with overlap
     ethr =  5.47E-03,  avg # of iterations =  2.0

     negative rho (up, down):  1.593E-04 0.000E+00

     total cpu time spent up to now is        4.9 secs

     total energy              =     -71.01453432 Ry
     estimated scf accuracy    <       0.11678356 Ry

     iteration #  3     ecut=    60.00 Ry     beta= 0.50
     Davidson diagonalization with overlap
     ethr =  7.30E-04,  avg # of iterations =  2.0

     negative rho (up, down):  8.844E-07 0.000E+00

     total cpu time spent up to now is        6.0 secs

     total energy              =     -71.01672246 Ry
     estimated scf accuracy    <       0.01794849 Ry

     iteration #  4     ecut=    60.00 Ry     beta= 0.50
     Davidson diagonalization with overlap
     ethr =  1.12E-04,  avg # of iterations =  3.0

     negative rho (up, down):  1.294E-07 0.000E+00

     total cpu time spent up to now is        7.3 secs

     total energy              =     -71.02004618 Ry
     estimated scf accuracy    <       0.01353553 Ry

     iteration #  5     ecut=    60.00 Ry     beta= 0.50
     Davidson diagonalization with overlap
     ethr =  8.46E-05,  avg # of iterations =  2.0

     negative rho (up, down):  1.060E-07 0.000E+00

     total cpu time spent up to now is        8.5 secs

     total energy              =     -71.02118185 Ry
     estimated scf accuracy    <       0.00114143 Ry

     iteration #  6     ecut=    60.00 Ry     beta= 0.50
     Davidson diagonalization with overlap
     ethr =  7.13E-06,  avg # of iterations =  2.0

     total cpu time spent up to now is        9.6 secs

     total energy              =     -71.02107851 Ry
     estimated scf accuracy    <       0.00043381 Ry

     iteration #  7     ecut=    60.00 Ry     beta= 0.50
     Davidson diagonalization with overlap
     ethr =  2.71E-06,  avg # of iterations =  3.0

     total cpu time spent up to now is       11.0 secs

     total energy              =     -71.02123110 Ry
     estimated scf accuracy    <       0.00002827 Ry

     iteration #  8     ecut=    60.00 Ry     beta= 0.50
     Davidson diagonalization with overlap
     ethr =  1.77E-07,  avg # of iterations =  2.0

     total cpu time spent up to now is       12.1 secs

     total energy              =     -71.02122854 Ry
     estimated scf accuracy    <       0.00001057 Ry

     iteration #  9     ecut=    60.00 Ry     beta= 0.50
     Davidson diagonalization with overlap
     ethr =  6.61E-08,  avg # of iterations =  2.0

     total cpu time spent up to now is       13.4 secs

     total energy              =     -71.02123090 Ry
     estimated scf accuracy    <       0.00000050 Ry

     iteration # 10     ecut=    60.00 Ry     beta= 0.50
     Davidson diagonalization with overlap
     ethr =  3.12E-09,  avg # of iterations =  2.0

     total cpu time spent up to now is       14.6 secs

     total energy              =     -71.02123084 Ry
     estimated scf accuracy    <       0.00000068 Ry

     iteration # 11     ecut=    60.00 Ry     beta= 0.50
     Davidson diagonalization with overlap
     ethr =  3.12E-09,  avg # of iterations =  2.0

     total cpu time spent up to now is       15.9 secs

     total energy              =     -71.02123093 Ry
     estimated scf accuracy    <       0.00000006 Ry

     iteration # 12     ecut=    60.00 Ry     beta= 0.50
     Davidson diagonalization with overlap
     ethr =  4.00E-10,  avg # of iterations =  2.0

     total cpu time spent up to now is       17.0 secs

     End of self-consistent calculation

          k = 0.0000 0.0000 0.0000 ( 45812 PWs)   bands (ev):

   -25.9643 -24.4203 -13.7320 -12.3493 -10.0269  -8.4797  -7.7729  -6.3994

     highest occupied level (ev):    -6.3994

!    total energy              =     -71.02123094 Ry
     estimated scf accuracy    <          9.3E-09 Ry

     The total energy is the sum of the following terms:
     one-electron contribution =    -149.44785531 Ry
     hartree contribution      =      77.85871306 Ry
     xc contribution           =     -19.64143982 Ry
     ewald contribution        =      20.20935113 Ry

     convergence has been achieved in  12 iterations

     Forces acting on atoms (cartesian axes, Ry/au):

     atom    1 type  1   force =    -0.01598754    0.00159460   -0.00321145
     atom    2 type  2   force =     0.01658128   -0.00170236    0.00338187
     atom    3 type  2   force =    -0.00081516    0.00002685   -0.00023100
     atom    4 type  1   force =     0.00013176    0.00026269    0.00027928
     atom    5 type  2   force =     0.00001658   -0.00000854   -0.00010777
     atom    6 type  2   force =     0.00007309   -0.00017323   -0.00011093
     The non-local contrib.  to forces
     atom    1 type  1   force =     0.77252543   -1.64181419    1.08725064
     atom    2 type  2   force =    -0.20901993    0.02660275   -0.04438493
     atom    3 type  2   force =     0.10680331    0.16624664   -0.08476187
     atom    4 type  1   force =     1.29400247    1.56803500   -0.62513263
     atom    5 type  2   force =    -0.11155693   -0.00546692    0.18520708
     atom    6 type  2   force =    -0.05221610   -0.17459919   -0.11619520
     The ionic contribution  to forces
     atom    1 type  1   force =    -4.51276420    3.49643320   -2.78245736
     atom    2 type  2   force =     2.61419432   -0.43467134    0.57997179
     atom    3 type  2   force =    -2.24566441   -2.98579065    1.46774107
     atom    4 type  1   force =     0.55802807   -3.28579986    1.84701322
     atom    5 type  2   force =     2.32141946    0.06843162   -3.29305583
     atom    6 type  2   force =     1.26478676    3.14139702    2.18078711
     The local contribution  to forces
     atom    1 type  1   force =     3.74450353   -1.89987957    1.72292419
     atom    2 type  2   force =    -2.38858390    0.40639317   -0.53225113
     atom    3 type  2   force =     2.13807438    2.81960870   -1.38326024
     atom    4 type  1   force =    -1.81442044    1.76306554   -1.23944661
     atom    5 type  2   force =    -2.20983557   -0.06295673    3.10771425
     atom    6 type  2   force =    -1.21248312   -2.96696601   -2.06475006
     The core correction contribution to forces
     atom    1 type  1   force =    -0.02024080    0.04694510   -0.03101255
     atom    2 type  2   force =     0.00000000    0.00000000    0.00000000
     atom    3 type  2   force =     0.00000000    0.00000000    0.00000000
     atom    4 type  1   force =    -0.03749075   -0.04507209    0.01782798
     atom    5 type  2   force =     0.00000000    0.00000000    0.00000000
     atom    6 type  2   force =     0.00000000    0.00000000    0.00000000
     The Hubbard contrib.    to forces
     atom    1 type  1   force =     0.00000000    0.00000000    0.00000000
     atom    2 type  2   force =     0.00000000    0.00000000    0.00000000
     atom    3 type  2   force =     0.00000000    0.00000000    0.00000000
     atom    4 type  1   force =     0.00000000    0.00000000    0.00000000
     atom    5 type  2   force =     0.00000000    0.00000000    0.00000000
     atom    6 type  2   force =     0.00000000    0.00000000    0.00000000
     The SCF correction term to forces
     atom    1 type  1   force =     0.00000978   -0.00006883    0.00004263
     atom    2 type  2   force =     0.00001207   -0.00000583    0.00000513
     atom    3 type  2   force =    -0.00000716   -0.00001672    0.00000904
     atom    4 type  1   force =     0.00003370    0.00005521   -0.00002368
     atom    5 type  2   force =     0.00001089    0.00000460   -0.00001427
     atom    6 type  2   force =     0.00000683    0.00001606    0.00000621

     Total force =     0.023636     Total SCF correction =     0.000113

     init_run     :      2.12s CPU      2.29s WALL (       1 calls)
     electrons    :     13.48s CPU     14.62s WALL (       1 calls)
     forces       :      0.93s CPU      1.03s WALL (       1 calls)

     Called by init_run:
     wfcinit      :      0.24s CPU      0.26s WALL (       1 calls)
     potinit      :      0.66s CPU      0.75s WALL (       1 calls)
     hinit0       :      1.01s CPU      1.04s WALL (       1 calls)

     Called by electrons:
     c_bands      :      5.53s CPU      5.78s WALL (      12 calls)
     sum_band     :      1.91s CPU      2.03s WALL (      12 calls)
     v_of_rho     :      4.99s CPU      5.70s WALL (      13 calls)
     mix_rho      :      1.19s CPU      1.29s WALL (      12 calls)

     Called by c_bands:
     init_us_2    :      0.16s CPU      0.17s WALL (      25 calls)
     init_us_2:cp :      0.16s CPU      0.17s WALL (      25 calls)
     regterg      :      5.24s CPU      5.46s WALL (      12 calls)

     Called by *egterg:
     rdiaghg      :      0.01s CPU      0.01s WALL (      38 calls)
     h_psi        :      5.13s CPU      5.36s WALL (      39 calls)
     g_psi        :      0.02s CPU      0.02s WALL (      26 calls)

     Called by h_psi:
     h_psi:calbec :      0.19s CPU      0.20s WALL (      39 calls)
     vloc_psi     :      4.78s CPU      5.01s WALL (      39 calls)
     add_vuspsi   :      0.13s CPU      0.13s WALL (      39 calls)

     General routines
     calbec       :      0.21s CPU      0.21s WALL (      43 calls)
     fft          :      3.43s CPU      3.91s WALL (     112 calls)
     ffts         :      0.30s CPU      0.34s WALL (      12 calls)
     fftw         :      4.31s CPU      4.52s WALL (     326 calls)

     Parallel routines

     PWSCF        :     16.63s CPU     18.10s WALL


   This run was terminated on:  14: 1:48  12May2025            

=------------------------------------------------------------------------------=
   JOB DONE.
=------------------------------------------------------------------------------=
