
     Program PWSCF v.7.2 starts on 12May2025 at 14: 3: 8 

     This program is part of the open-source Quantum ESPRESSO suite
     for quantum simulation of materials; please cite
         "P. Giannozzi et al., J. Phys.:Condens. Matter 21 395502 (2009);
         "P. Giannozzi et al., J. Phys.:Condens. Matter 29 465901 (2017);
         "P. Giannozzi et al., J. Chem. Phys. 152 154105 (2020);
          URL http://www.quantum-espresso.org", 
     in publications or presentations arising from this work. More details at
     http://www.quantum-espresso.org/quote

     Parallel version (MPI), running on     8 processors

     MPI processes distributed on     1 nodes
     206685 MiB available memory on the printing compute node when the environment starts

     Waiting for input...
     Reading input from standard input
Warning: card &CELL ignored
Warning: card / ignored
Warning: card &FCP ignored
Warning: card / ignored
Warning: card &RISM ignored
Warning: card / ignored

     Current dimensions of program PWSCF are:
     Max number of different atomic species (ntypx) = 10
     Max number of k-points (npk) =  40000
     Max angular momentum in pseudopotentials (lmaxx) =  4

     gamma-point specific algorithms are used

     R & G space division:  proc/nbgrp/npool/nimage =       8
     Subspace diagonalization in iterative solution of the eigenvalue problem:
     a serial algorithm will be used


     Parallelization info
     --------------------
     sticks:   dense  smooth     PW     G-vecs:    dense   smooth      PW
     Min        1225    1225    305                91534    91534   11450
     Max        1228    1228    308                91540    91540   11456
     Sum        9809    9809   2449               732287   732287   91623

     Using Slab Decomposition



     bravais-lattice index     =            0
     lattice parameter (alat)  =      22.6767  a.u.
     unit-cell volume          =   11661.1211 (a.u.)^3
     number of atoms/cell      =            6
     number of atomic types    =            2
     number of electrons       =        16.00
     number of Kohn-Sham states=            8
     kinetic-energy cutoff     =      60.0000  Ry
     charge density cutoff     =     240.0000  Ry
     scf convergence threshold =      1.0E-08
     mixing beta               =       0.5000
     number of iterations used =            8  plain     mixing
     Exchange-correlation= PBE
                           (   1   4   3   4   0   0   0)

     celldm(1)=  22.676713  celldm(2)=   0.000000  celldm(3)=   0.000000
     celldm(4)=   0.000000  celldm(5)=   0.000000  celldm(6)=   0.000000

     crystal axes: (cart. coord. in units of alat)
               a(1) = (   1.000000   0.000000   0.000000 )  
               a(2) = (   0.000000   1.000000   0.000000 )  
               a(3) = (   0.000000   0.000000   1.000000 )  

     reciprocal axes: (cart. coord. in units 2 pi/alat)
               b(1) = (  1.000000  0.000000  0.000000 )  
               b(2) = (  0.000000  1.000000  0.000000 )  
               b(3) = (  0.000000  0.000000  1.000000 )  


     PseudoPot. # 1 for O  read from file:
     ./O.upf
     MD5 check sum: 9db02a5ece9d56b81b65a73f8163743d
     Pseudo is Norm-conserving + core correction, Zval =  6.0
     Generated using ONCVPSP code by D. R. Hamann
     Using radial grid of  936 points,  5 beta functions with: 
                l(1) =   0
                l(2) =   0
                l(3) =   1
                l(4) =   1
                l(5) =   2

     PseudoPot. # 2 for H  read from file:
     ./H.upf
     MD5 check sum: e96aa7e3e4a958db16958554ea960e2a
     Pseudo is Norm-conserving, Zval =  1.0
     Generated using ONCVPSP code by D. R. Hamann
     Using radial grid of 1166 points,  3 beta functions with: 
                l(1) =   0
                l(2) =   0
                l(3) =   1

     atomic species   valence    mass     pseudopotential
        O              6.00    15.99900     O ( 1.00)
        H              1.00     1.00800     H ( 1.00)

     No symmetry found



   Cartesian axes

     site n.     atom                  positions (alat units)
         1           O   tau(   1) = (  -0.2503754   0.1086414  -0.0048282  )
         2           H   tau(   2) = (  -0.1718787   0.0966176   0.0137870  )
         3           H   tau(   3) = (  -0.2882844   0.0456469   0.0276401  )
         4           O   tau(   4) = (  -0.0163116   0.0908894   0.0425254  )
         5           H   tau(   5) = (   0.0261601   0.0951935  -0.0257541  )
         6           H   tau(   6) = (   0.0046099   0.1567570   0.0838904  )

     number of k points=     1
                       cart. coord. in units 2pi/alat
        k(    1) = (   0.0000000   0.0000000   0.0000000), wk =   2.0000000

     Dense  grid:   366144 G-vectors     FFT dimensions: ( 120, 120, 120)

     Estimated max dynamical RAM per process >      44.55 MB

     Estimated total dynamical RAM >     356.41 MB

     Check: negative core charge=   -0.000005

     Initial potential from superposition of free atoms

     starting charge      16.0000, renormalised to      16.0000

     negative rho (up, down):  6.060E-04 0.000E+00
     Starting wfcs are   12 randomized atomic wfcs

     total cpu time spent up to now is        2.4 secs

     Self-consistent Calculation

     iteration #  1     ecut=    60.00 Ry     beta= 0.50
     Davidson diagonalization with overlap
     ethr =  1.00E-02,  avg # of iterations =  2.0

     negative rho (up, down):  2.776E-04 0.000E+00

     total cpu time spent up to now is        3.6 secs

     total energy              =     -70.77410828 Ry
     estimated scf accuracy    <       0.87083968 Ry

     iteration #  2     ecut=    60.00 Ry     beta= 0.50
     Davidson diagonalization with overlap
     ethr =  5.44E-03,  avg # of iterations =  2.0

     negative rho (up, down):  1.594E-04 0.000E+00

     total cpu time spent up to now is        4.9 secs

     total energy              =     -71.01461538 Ry
     estimated scf accuracy    <       0.11733347 Ry

     iteration #  3     ecut=    60.00 Ry     beta= 0.50
     Davidson diagonalization with overlap
     ethr =  7.33E-04,  avg # of iterations =  2.0

     negative rho (up, down):  9.144E-07 0.000E+00

     total cpu time spent up to now is        6.0 secs

     total energy              =     -71.01642222 Ry
     estimated scf accuracy    <       0.01825851 Ry

     iteration #  4     ecut=    60.00 Ry     beta= 0.50
     Davidson diagonalization with overlap
     ethr =  1.14E-04,  avg # of iterations =  3.0

     negative rho (up, down):  1.398E-07 0.000E+00

     total cpu time spent up to now is        7.3 secs

     total energy              =     -71.01989452 Ry
     estimated scf accuracy    <       0.01525551 Ry

     iteration #  5     ecut=    60.00 Ry     beta= 0.50
     Davidson diagonalization with overlap
     ethr =  9.53E-05,  avg # of iterations =  2.0

     negative rho (up, down):  2.745E-08 0.000E+00

     total cpu time spent up to now is        8.5 secs

     total energy              =     -71.02112648 Ry
     estimated scf accuracy    <       0.00130560 Ry

     iteration #  6     ecut=    60.00 Ry     beta= 0.50
     Davidson diagonalization with overlap
     ethr =  8.16E-06,  avg # of iterations =  3.0

     total cpu time spent up to now is        9.7 secs

     total energy              =     -71.02132042 Ry
     estimated scf accuracy    <       0.00014522 Ry

     iteration #  7     ecut=    60.00 Ry     beta= 0.50
     Davidson diagonalization with overlap
     ethr =  9.08E-07,  avg # of iterations =  3.0

     total cpu time spent up to now is       11.0 secs

     total energy              =     -71.02137770 Ry
     estimated scf accuracy    <       0.00000605 Ry

     iteration #  8     ecut=    60.00 Ry     beta= 0.50
     Davidson diagonalization with overlap
     ethr =  3.78E-08,  avg # of iterations =  3.0

     total cpu time spent up to now is       12.3 secs

     total energy              =     -71.02137043 Ry
     estimated scf accuracy    <       0.00002827 Ry

     iteration #  9     ecut=    60.00 Ry     beta= 0.50
     Davidson diagonalization with overlap
     ethr =  3.78E-08,  avg # of iterations =  2.0

     total cpu time spent up to now is       13.6 secs

     total energy              =     -71.02137192 Ry
     estimated scf accuracy    <       0.00000247 Ry

     iteration # 10     ecut=    60.00 Ry     beta= 0.50
     Davidson diagonalization with overlap
     ethr =  1.54E-08,  avg # of iterations =  2.0

     total cpu time spent up to now is       14.9 secs

     total energy              =     -71.02137233 Ry
     estimated scf accuracy    <       0.00000011 Ry

     iteration # 11     ecut=    60.00 Ry     beta= 0.50
     Davidson diagonalization with overlap
     ethr =  6.75E-10,  avg # of iterations =  2.0

     total cpu time spent up to now is       16.1 secs

     total energy              =     -71.02137234 Ry
     estimated scf accuracy    <       0.00000004 Ry

     iteration # 12     ecut=    60.00 Ry     beta= 0.50
     Davidson diagonalization with overlap
     ethr =  2.61E-10,  avg # of iterations =  2.0

     total cpu time spent up to now is       17.3 secs

     total energy              =     -71.02137233 Ry
     estimated scf accuracy    <       0.00000002 Ry

     iteration # 13     ecut=    60.00 Ry     beta= 0.50
     Davidson diagonalization with overlap
     ethr =  1.15E-10,  avg # of iterations =  2.0

     total cpu time spent up to now is       18.4 secs

     End of self-consistent calculation

          k = 0.0000 0.0000 0.0000 ( 45812 PWs)   bands (ev):

   -25.9848 -24.3441 -13.7509 -12.2819 -10.0461  -8.4712  -7.7790  -6.3730

     highest occupied level (ev):    -6.3730

!    total energy              =     -71.02137233 Ry
     estimated scf accuracy    <          1.6E-09 Ry

     The total energy is the sum of the following terms:
     one-electron contribution =    -149.35198718 Ry
     hartree contribution      =      77.81184042 Ry
     xc contribution           =     -19.63109460 Ry
     ewald contribution        =      20.14986903 Ry

     convergence has been achieved in  13 iterations

     Forces acting on atoms (cartesian axes, Ry/au):

     atom    1 type  1   force =     0.00406044   -0.00089767    0.00126633
     atom    2 type  2   force =    -0.00319802    0.00112899   -0.00147739
     atom    3 type  2   force =    -0.00085909   -0.00035473   -0.00000846
     atom    4 type  1   force =     0.00000221    0.00027230    0.00052143
     atom    5 type  2   force =    -0.00011526   -0.00004219   -0.00027130
     atom    6 type  2   force =     0.00010971   -0.00010670   -0.00003060
     The non-local contrib.  to forces
     atom    1 type  1   force =     0.75524932   -1.63580646    1.09701510
     atom    2 type  2   force =    -0.19945749    0.02495607   -0.04384549
     atom    3 type  2   force =     0.10670477    0.16624207   -0.08470975
     atom    4 type  1   force =     1.28985524    1.56842364   -0.62519271
     atom    5 type  2   force =    -0.11160127   -0.00546924    0.18523193
     atom    6 type  2   force =    -0.05224266   -0.17462748   -0.11620726
     The ionic contribution  to forces
     atom    1 type  1   force =    -4.42393339    3.47714622   -2.78969112
     atom    2 type  2   force =     2.51009534   -0.41671517    0.59126439
     atom    3 type  2   force =    -2.24380783   -2.98429487    1.46577105
     atom    4 type  1   force =     0.56995609   -3.28641200    1.84534503
     atom    5 type  2   force =     2.32195504    0.06842514   -3.29361408
     atom    6 type  2   force =     1.26573475    3.14185069    2.18092473
     The local contribution  to forces
     atom    1 type  1   force =     3.69340687   -1.88918987    1.72544563
     atom    2 type  2   force =    -2.31380867    0.39290201   -0.54893238
     atom    3 type  2   force =     2.13626292    2.81770670   -1.38110388
     atom    4 type  1   force =    -1.82241845    1.76337402   -1.23750902
     atom    5 type  2   force =    -2.21044323   -0.06298105    3.10806713
     atom    6 type  2   force =    -1.21335829   -2.96730807   -2.06478321
     The core correction contribution to forces
     atom    1 type  1   force =    -0.02062736    0.04695164   -0.03152929
     atom    2 type  2   force =     0.00000000    0.00000000    0.00000000
     atom    3 type  2   force =     0.00000000    0.00000000    0.00000000
     atom    4 type  1   force =    -0.03735773   -0.04507778    0.01783158
     atom    5 type  2   force =     0.00000000    0.00000000    0.00000000
     atom    6 type  2   force =     0.00000000    0.00000000    0.00000000
     The Hubbard contrib.    to forces
     atom    1 type  1   force =     0.00000000    0.00000000    0.00000000
     atom    2 type  2   force =     0.00000000    0.00000000    0.00000000
     atom    3 type  2   force =     0.00000000    0.00000000    0.00000000
     atom    4 type  1   force =     0.00000000    0.00000000    0.00000000
     atom    5 type  2   force =     0.00000000    0.00000000    0.00000000
     atom    6 type  2   force =     0.00000000    0.00000000    0.00000000
     The SCF correction term to forces
     atom    1 type  1   force =    -0.00001333    0.00001623   -0.00001184
     atom    2 type  2   force =    -0.00000555    0.00000151   -0.00000175
     atom    3 type  2   force =     0.00000270    0.00000680   -0.00000372
     atom    4 type  1   force =    -0.00001129   -0.00002016    0.00000871
     atom    5 type  2   force =    -0.00000415   -0.00000160    0.00000588
     atom    6 type  2   force =    -0.00000244   -0.00000640   -0.00000270

     Total force =     0.005823     Total SCF correction =     0.000037

     init_run     :      2.13s CPU      2.30s WALL (       1 calls)
     electrons    :     14.71s CPU     15.95s WALL (       1 calls)
     forces       :      0.87s CPU      0.97s WALL (       1 calls)

     Called by init_run:
     wfcinit      :      0.24s CPU      0.26s WALL (       1 calls)
     potinit      :      0.69s CPU      0.79s WALL (       1 calls)
     hinit0       :      0.99s CPU      1.02s WALL (       1 calls)

     Called by electrons:
     c_bands      :      6.11s CPU      6.39s WALL (      13 calls)
     sum_band     :      2.03s CPU      2.16s WALL (      13 calls)
     v_of_rho     :      5.35s CPU      6.11s WALL (      14 calls)
     mix_rho      :      1.33s CPU      1.44s WALL (      13 calls)

     Called by c_bands:
     init_us_2    :      0.17s CPU      0.18s WALL (      27 calls)
     init_us_2:cp :      0.17s CPU      0.18s WALL (      27 calls)
     regterg      :      5.80s CPU      6.06s WALL (      13 calls)

     Called by *egterg:
     rdiaghg      :      0.01s CPU      0.01s WALL (      43 calls)
     h_psi        :      5.66s CPU      5.92s WALL (      44 calls)
     g_psi        :      0.02s CPU      0.02s WALL (      30 calls)

     Called by h_psi:
     h_psi:calbec :      0.19s CPU      0.20s WALL (      44 calls)
     vloc_psi     :      5.29s CPU      5.54s WALL (      44 calls)
     add_vuspsi   :      0.14s CPU      0.14s WALL (      44 calls)

     General routines
     calbec       :      0.21s CPU      0.21s WALL (      48 calls)
     fft          :      3.61s CPU      4.12s WALL (     120 calls)
     ffts         :      0.33s CPU      0.36s WALL (      13 calls)
     fftw         :      4.58s CPU      4.84s WALL (     360 calls)

     Parallel routines

     PWSCF        :     17.81s CPU     19.38s WALL


   This run was terminated on:  14: 3:27  12May2025            

=------------------------------------------------------------------------------=
   JOB DONE.
=------------------------------------------------------------------------------=
