
     Program PWSCF v.7.2 starts on 12May2025 at 14: 6: 1 

     This program is part of the open-source Quantum ESPRESSO suite
     for quantum simulation of materials; please cite
         "P. Giannozzi et al., J. Phys.:Condens. Matter 21 395502 (2009);
         "P. Giannozzi et al., J. Phys.:Condens. Matter 29 465901 (2017);
         "P. Giannozzi et al., J. Chem. Phys. 152 154105 (2020);
          URL http://www.quantum-espresso.org", 
     in publications or presentations arising from this work. More details at
     http://www.quantum-espresso.org/quote

     Parallel version (MPI), running on     8 processors

     MPI processes distributed on     1 nodes
     206671 MiB available memory on the printing compute node when the environment starts

     Waiting for input...
     Reading input from standard input
Warning: card &CELL ignored
Warning: card / ignored
Warning: card &FCP ignored
Warning: card / ignored
Warning: card &RISM ignored
Warning: card / ignored

     Current dimensions of program PWSCF are:
     Max number of different atomic species (ntypx) = 10
     Max number of k-points (npk) =  40000
     Max angular momentum in pseudopotentials (lmaxx) =  4

     gamma-point specific algorithms are used

     R & G space division:  proc/nbgrp/npool/nimage =       8
     Subspace diagonalization in iterative solution of the eigenvalue problem:
     a serial algorithm will be used


     Parallelization info
     --------------------
     sticks:   dense  smooth     PW     G-vecs:    dense   smooth      PW
     Min        1225    1225    305                91534    91534   11450
     Max        1228    1228    308                91540    91540   11456
     Sum        9809    9809   2449               732287   732287   91623

     Using Slab Decomposition



     bravais-lattice index     =            0
     lattice parameter (alat)  =      22.6767  a.u.
     unit-cell volume          =   11661.1211 (a.u.)^3
     number of atoms/cell      =            6
     number of atomic types    =            2
     number of electrons       =        16.00
     number of Kohn-Sham states=            8
     kinetic-energy cutoff     =      60.0000  Ry
     charge density cutoff     =     240.0000  Ry
     scf convergence threshold =      1.0E-08
     mixing beta               =       0.5000
     number of iterations used =            8  plain     mixing
     Exchange-correlation= PBE
                           (   1   4   3   4   0   0   0)

     celldm(1)=  22.676713  celldm(2)=   0.000000  celldm(3)=   0.000000
     celldm(4)=   0.000000  celldm(5)=   0.000000  celldm(6)=   0.000000

     crystal axes: (cart. coord. in units of alat)
               a(1) = (   1.000000   0.000000   0.000000 )  
               a(2) = (   0.000000   1.000000   0.000000 )  
               a(3) = (   0.000000   0.000000   1.000000 )  

     reciprocal axes: (cart. coord. in units 2 pi/alat)
               b(1) = (  1.000000  0.000000  0.000000 )  
               b(2) = (  0.000000  1.000000  0.000000 )  
               b(3) = (  0.000000  0.000000  1.000000 )  


     PseudoPot. # 1 for O  read from file:
     ./O.upf
     MD5 check sum: 9db02a5ece9d56b81b65a73f8163743d
     Pseudo is Norm-conserving + core correction, Zval =  6.0
     Generated using ONCVPSP code by D. R. Hamann
     Using radial grid of  936 points,  5 beta functions with: 
                l(1) =   0
                l(2) =   0
                l(3) =   1
                l(4) =   1
                l(5) =   2

     PseudoPot. # 2 for H  read from file:
     ./H.upf
     MD5 check sum: e96aa7e3e4a958db16958554ea960e2a
     Pseudo is Norm-conserving, Zval =  1.0
     Generated using ONCVPSP code by D. R. Hamann
     Using radial grid of 1166 points,  3 beta functions with: 
                l(1) =   0
                l(2) =   0
                l(3) =   1

     atomic species   valence    mass     pseudopotential
        O              6.00    15.99900     O ( 1.00)
        H              1.00     1.00800     H ( 1.00)

     No symmetry found



   Cartesian axes

     site n.     atom                  positions (alat units)
         1           O   tau(   1) = (  -0.2503754   0.1086414  -0.0048282  )
         2           H   tau(   2) = (  -0.1718787   0.0966176   0.0129537  )
         3           H   tau(   3) = (  -0.2882844   0.0456469   0.0276401  )
         4           O   tau(   4) = (  -0.0163116   0.0900561   0.0425254  )
         5           H   tau(   5) = (   0.0261601   0.0951935  -0.0257541  )
         6           H   tau(   6) = (   0.0046099   0.1567570   0.0838904  )

     number of k points=     1
                       cart. coord. in units 2pi/alat
        k(    1) = (   0.0000000   0.0000000   0.0000000), wk =   2.0000000

     Dense  grid:   366144 G-vectors     FFT dimensions: ( 120, 120, 120)

     Estimated max dynamical RAM per process >      44.55 MB

     Estimated total dynamical RAM >     356.41 MB

     Check: negative core charge=   -0.000005

     Initial potential from superposition of free atoms

     starting charge      16.0000, renormalised to      16.0000

     negative rho (up, down):  6.053E-04 0.000E+00
     Starting wfcs are   12 randomized atomic wfcs

     total cpu time spent up to now is        2.4 secs

     Self-consistent Calculation

     iteration #  1     ecut=    60.00 Ry     beta= 0.50
     Davidson diagonalization with overlap
     ethr =  1.00E-02,  avg # of iterations =  2.0

     negative rho (up, down):  2.773E-04 0.000E+00

     total cpu time spent up to now is        3.6 secs

     total energy              =     -70.77417115 Ry
     estimated scf accuracy    <       0.86871759 Ry

     iteration #  2     ecut=    60.00 Ry     beta= 0.50
     Davidson diagonalization with overlap
     ethr =  5.43E-03,  avg # of iterations =  2.0

     negative rho (up, down):  1.594E-04 0.000E+00

     total cpu time spent up to now is        4.8 secs

     total energy              =     -71.01439268 Ry
     estimated scf accuracy    <       0.11804744 Ry

     iteration #  3     ecut=    60.00 Ry     beta= 0.50
     Davidson diagonalization with overlap
     ethr =  7.38E-04,  avg # of iterations =  2.0

     negative rho (up, down):  8.110E-07 0.000E+00

     total cpu time spent up to now is        6.0 secs

     total energy              =     -71.01664407 Ry
     estimated scf accuracy    <       0.01806590 Ry

     iteration #  4     ecut=    60.00 Ry     beta= 0.50
     Davidson diagonalization with overlap
     ethr =  1.13E-04,  avg # of iterations =  3.0

     negative rho (up, down):  1.425E-07 0.000E+00

     total cpu time spent up to now is        7.3 secs

     total energy              =     -71.01985795 Ry
     estimated scf accuracy    <       0.01440007 Ry

     iteration #  5     ecut=    60.00 Ry     beta= 0.50
     Davidson diagonalization with overlap
     ethr =  9.00E-05,  avg # of iterations =  2.0

     negative rho (up, down):  7.331E-08 0.000E+00

     total cpu time spent up to now is        8.5 secs

     total energy              =     -71.02104640 Ry
     estimated scf accuracy    <       0.00111952 Ry

     iteration #  6     ecut=    60.00 Ry     beta= 0.50
     Davidson diagonalization with overlap
     ethr =  7.00E-06,  avg # of iterations =  2.0

     total cpu time spent up to now is        9.7 secs

     total energy              =     -71.02116327 Ry
     estimated scf accuracy    <       0.00019392 Ry

     iteration #  7     ecut=    60.00 Ry     beta= 0.50
     Davidson diagonalization with overlap
     ethr =  1.21E-06,  avg # of iterations =  3.0

     total cpu time spent up to now is       11.0 secs

     total energy              =     -71.02125894 Ry
     estimated scf accuracy    <       0.00003135 Ry

     iteration #  8     ecut=    60.00 Ry     beta= 0.50
     Davidson diagonalization with overlap
     ethr =  1.96E-07,  avg # of iterations =  1.0

     total cpu time spent up to now is       12.1 secs

     total energy              =     -71.02125143 Ry
     estimated scf accuracy    <       0.00002629 Ry

     iteration #  9     ecut=    60.00 Ry     beta= 0.50
     Davidson diagonalization with overlap
     ethr =  1.64E-07,  avg # of iterations =  2.0

     total cpu time spent up to now is       13.3 secs

     total energy              =     -71.02125181 Ry
     estimated scf accuracy    <       0.00000627 Ry

     iteration # 10     ecut=    60.00 Ry     beta= 0.50
     Davidson diagonalization with overlap
     ethr =  3.92E-08,  avg # of iterations =  2.0

     total cpu time spent up to now is       14.5 secs

     total energy              =     -71.02125179 Ry
     estimated scf accuracy    <       0.00000117 Ry

     iteration # 11     ecut=    60.00 Ry     beta= 0.50
     Davidson diagonalization with overlap
     ethr =  7.32E-09,  avg # of iterations =  2.0

     total cpu time spent up to now is       15.8 secs

     total energy              =     -71.02125213 Ry
     estimated scf accuracy    <       0.00000004 Ry

     iteration # 12     ecut=    60.00 Ry     beta= 0.50
     Davidson diagonalization with overlap
     ethr =  2.34E-10,  avg # of iterations =  2.0

     total cpu time spent up to now is       17.1 secs

     total energy              =     -71.02125213 Ry
     estimated scf accuracy    <       0.00000001 Ry

     iteration # 13     ecut=    60.00 Ry     beta= 0.50
     Davidson diagonalization with overlap
     ethr =  7.04E-11,  avg # of iterations =  2.0

     total cpu time spent up to now is       18.1 secs

     End of self-consistent calculation

          k = 0.0000 0.0000 0.0000 ( 45812 PWs)   bands (ev):

   -25.9478 -24.3538 -13.6748 -12.3058 -10.0648  -8.4691  -7.7698  -6.3772

     highest occupied level (ev):    -6.3772

!    total energy              =     -71.02125213 Ry
     estimated scf accuracy    <          8.4E-09 Ry

     The total energy is the sum of the following terms:
     one-electron contribution =    -149.26336667 Ry
     hartree contribution      =      77.76841154 Ry
     xc contribution           =     -19.62476728 Ry
     ewald contribution        =      20.09847029 Ry

     convergence has been achieved in  13 iterations

     Forces acting on atoms (cartesian axes, Ry/au):

     atom    1 type  1   force =     0.00006530    0.00031287   -0.00020444
     atom    2 type  2   force =    -0.00005179   -0.00014376    0.00008373
     atom    3 type  2   force =    -0.00004782   -0.00033233    0.00008421
     atom    4 type  1   force =     0.00516503    0.01377419    0.00684694
     atom    5 type  2   force =    -0.00065606   -0.00127023   -0.00048059
     atom    6 type  2   force =    -0.00447465   -0.01234075   -0.00632985
     The non-local contrib.  to forces
     atom    1 type  1   force =     0.76302061   -1.63851126    1.08200647
     atom    2 type  2   force =    -0.20157115    0.02518577   -0.04221982
     atom    3 type  2   force =     0.10682251    0.16619352   -0.08473398
     atom    4 type  1   force =     1.27964386    1.58215727   -0.63574311
     atom    5 type  2   force =    -0.11142538   -0.00785174    0.18464293
     atom    6 type  2   force =    -0.05030279   -0.17010233   -0.11180268
     The ionic contribution  to forces
     atom    1 type  1   force =    -4.44528069    3.48868658   -2.75881351
     atom    2 type  2   force =     2.53620788   -0.41565168    0.55448707
     atom    3 type  2   force =    -2.24376927   -2.98329129    1.46722650
     atom    4 type  1   force =     0.59212867   -3.29926148    1.88986491
     atom    5 type  2   force =     2.31872961    0.10516883   -3.28773081
     atom    6 type  2   force =     1.24198380    3.10434903    2.13496584
     The local contribution  to forces
     atom    1 type  1   force =     3.70306427   -1.89695301    1.70768912
     atom    2 type  2   force =    -2.33464480    0.39032303   -0.51220911
     atom    3 type  2   force =     2.13690976    2.81675432   -1.38243121
     atom    4 type  1   force =    -1.82938727    1.77682078   -1.26513781
     atom    5 type  2   force =    -2.20794830   -0.09858014    3.10258040
     atom    6 type  2   force =    -1.19614149   -2.94658632   -2.02953068
     The core correction contribution to forces
     atom    1 type  1   force =    -0.02069852    0.04702275   -0.03107168
     atom    2 type  2   force =     0.00000000    0.00000000    0.00000000
     atom    3 type  2   force =     0.00000000    0.00000000    0.00000000
     atom    4 type  1   force =    -0.03721343   -0.04594256    0.01783178
     atom    5 type  2   force =     0.00000000    0.00000000    0.00000000
     atom    6 type  2   force =     0.00000000    0.00000000    0.00000000
     The Hubbard contrib.    to forces
     atom    1 type  1   force =     0.00000000    0.00000000    0.00000000
     atom    2 type  2   force =     0.00000000    0.00000000    0.00000000
     atom    3 type  2   force =     0.00000000    0.00000000    0.00000000
     atom    4 type  1   force =     0.00000000    0.00000000    0.00000000
     atom    5 type  2   force =     0.00000000    0.00000000    0.00000000
     atom    6 type  2   force =     0.00000000    0.00000000    0.00000000
     The SCF correction term to forces
     atom    1 type  1   force =    -0.00002195    0.00007814   -0.00004949
     atom    2 type  2   force =    -0.00002529    0.00000946   -0.00000906
     atom    3 type  2   force =     0.00000760    0.00002144   -0.00001174
     atom    4 type  1   force =     0.00001162    0.00001051   -0.00000348
     atom    5 type  2   force =     0.00000644    0.00000316   -0.00000776
     atom    6 type  2   force =     0.00000426    0.00000919    0.00000303

     Total force =     0.021869     Total SCF correction =     0.000105

     init_run     :      2.09s CPU      2.28s WALL (       1 calls)
     electrons    :     14.46s CPU     15.71s WALL (       1 calls)
     forces       :      0.88s CPU      0.97s WALL (       1 calls)

     Called by init_run:
     wfcinit      :      0.23s CPU      0.26s WALL (       1 calls)
     potinit      :      0.66s CPU      0.76s WALL (       1 calls)
     hinit0       :      0.99s CPU      1.03s WALL (       1 calls)

     Called by electrons:
     c_bands      :      5.86s CPU      6.15s WALL (      13 calls)
     sum_band     :      2.04s CPU      2.17s WALL (      13 calls)
     v_of_rho     :      5.35s CPU      6.11s WALL (      14 calls)
     mix_rho      :      1.32s CPU      1.44s WALL (      13 calls)

     Called by c_bands:
     init_us_2    :      0.17s CPU      0.18s WALL (      27 calls)
     init_us_2:cp :      0.17s CPU      0.18s WALL (      27 calls)
     regterg      :      5.55s CPU      5.81s WALL (      13 calls)

     Called by *egterg:
     rdiaghg      :      0.01s CPU      0.01s WALL (      40 calls)
     h_psi        :      5.42s CPU      5.70s WALL (      41 calls)
     g_psi        :      0.02s CPU      0.02s WALL (      27 calls)

     Called by h_psi:
     h_psi:calbec :      0.19s CPU      0.20s WALL (      41 calls)
     vloc_psi     :      5.07s CPU      5.33s WALL (      41 calls)
     add_vuspsi   :      0.13s CPU      0.14s WALL (      41 calls)

     General routines
     calbec       :      0.21s CPU      0.21s WALL (      45 calls)
     fft          :      3.61s CPU      4.10s WALL (     120 calls)
     ffts         :      0.33s CPU      0.37s WALL (      13 calls)
     fftw         :      4.40s CPU      4.66s WALL (     348 calls)

     Parallel routines

     PWSCF        :     17.53s CPU     19.11s WALL


   This run was terminated on:  14: 6:20  12May2025            

=------------------------------------------------------------------------------=
   JOB DONE.
=------------------------------------------------------------------------------=
