
     Program PWSCF v.7.2 starts on 12May2025 at 14: 4: 5 

     This program is part of the open-source Quantum ESPRESSO suite
     for quantum simulation of materials; please cite
         "P. Giannozzi et al., J. Phys.:Condens. Matter 21 395502 (2009);
         "P. Giannozzi et al., J. Phys.:Condens. Matter 29 465901 (2017);
         "P. Giannozzi et al., J. Chem. Phys. 152 154105 (2020);
          URL http://www.quantum-espresso.org", 
     in publications or presentations arising from this work. More details at
     http://www.quantum-espresso.org/quote

     Parallel version (MPI), running on     8 processors

     MPI processes distributed on     1 nodes
     206681 MiB available memory on the printing compute node when the environment starts

     Waiting for input...
     Reading input from standard input
Warning: card &CELL ignored
Warning: card / ignored
Warning: card &FCP ignored
Warning: card / ignored
Warning: card &RISM ignored
Warning: card / ignored

     Current dimensions of program PWSCF are:
     Max number of different atomic species (ntypx) = 10
     Max number of k-points (npk) =  40000
     Max angular momentum in pseudopotentials (lmaxx) =  4

     gamma-point specific algorithms are used

     R & G space division:  proc/nbgrp/npool/nimage =       8
     Subspace diagonalization in iterative solution of the eigenvalue problem:
     a serial algorithm will be used


     Parallelization info
     --------------------
     sticks:   dense  smooth     PW     G-vecs:    dense   smooth      PW
     Min        1225    1225    305                91534    91534   11450
     Max        1228    1228    308                91540    91540   11456
     Sum        9809    9809   2449               732287   732287   91623

     Using Slab Decomposition



     bravais-lattice index     =            0
     lattice parameter (alat)  =      22.6767  a.u.
     unit-cell volume          =   11661.1211 (a.u.)^3
     number of atoms/cell      =            6
     number of atomic types    =            2
     number of electrons       =        16.00
     number of Kohn-Sham states=            8
     kinetic-energy cutoff     =      60.0000  Ry
     charge density cutoff     =     240.0000  Ry
     scf convergence threshold =      1.0E-08
     mixing beta               =       0.5000
     number of iterations used =            8  plain     mixing
     Exchange-correlation= PBE
                           (   1   4   3   4   0   0   0)

     celldm(1)=  22.676713  celldm(2)=   0.000000  celldm(3)=   0.000000
     celldm(4)=   0.000000  celldm(5)=   0.000000  celldm(6)=   0.000000

     crystal axes: (cart. coord. in units of alat)
               a(1) = (   1.000000   0.000000   0.000000 )  
               a(2) = (   0.000000   1.000000   0.000000 )  
               a(3) = (   0.000000   0.000000   1.000000 )  

     reciprocal axes: (cart. coord. in units 2 pi/alat)
               b(1) = (  1.000000  0.000000  0.000000 )  
               b(2) = (  0.000000  1.000000  0.000000 )  
               b(3) = (  0.000000  0.000000  1.000000 )  


     PseudoPot. # 1 for O  read from file:
     ./O.upf
     MD5 check sum: 9db02a5ece9d56b81b65a73f8163743d
     Pseudo is Norm-conserving + core correction, Zval =  6.0
     Generated using ONCVPSP code by D. R. Hamann
     Using radial grid of  936 points,  5 beta functions with: 
                l(1) =   0
                l(2) =   0
                l(3) =   1
                l(4) =   1
                l(5) =   2

     PseudoPot. # 2 for H  read from file:
     ./H.upf
     MD5 check sum: e96aa7e3e4a958db16958554ea960e2a
     Pseudo is Norm-conserving, Zval =  1.0
     Generated using ONCVPSP code by D. R. Hamann
     Using radial grid of 1166 points,  3 beta functions with: 
                l(1) =   0
                l(2) =   0
                l(3) =   1

     atomic species   valence    mass     pseudopotential
        O              6.00    15.99900     O ( 1.00)
        H              1.00     1.00800     H ( 1.00)

     No symmetry found



   Cartesian axes

     site n.     atom                  positions (alat units)
         1           O   tau(   1) = (  -0.2503754   0.1086414  -0.0048282  )
         2           H   tau(   2) = (  -0.1718787   0.0966176   0.0129537  )
         3           H   tau(   3) = (  -0.2882844   0.0448136   0.0276401  )
         4           O   tau(   4) = (  -0.0163116   0.0908894   0.0425254  )
         5           H   tau(   5) = (   0.0261601   0.0951935  -0.0257541  )
         6           H   tau(   6) = (   0.0046099   0.1567570   0.0838904  )

     number of k points=     1
                       cart. coord. in units 2pi/alat
        k(    1) = (   0.0000000   0.0000000   0.0000000), wk =   2.0000000

     Dense  grid:   366144 G-vectors     FFT dimensions: ( 120, 120, 120)

     Estimated max dynamical RAM per process >      44.55 MB

     Estimated total dynamical RAM >     356.41 MB

     Check: negative core charge=   -0.000005

     Initial potential from superposition of free atoms

     starting charge      16.0000, renormalised to      16.0000

     negative rho (up, down):  6.055E-04 0.000E+00
     Starting wfcs are   12 randomized atomic wfcs

     total cpu time spent up to now is        2.5 secs

     Self-consistent Calculation

     iteration #  1     ecut=    60.00 Ry     beta= 0.50
     Davidson diagonalization with overlap
     ethr =  1.00E-02,  avg # of iterations =  2.0

     negative rho (up, down):  2.774E-04 0.000E+00

     total cpu time spent up to now is        3.7 secs

     total energy              =     -70.77390153 Ry
     estimated scf accuracy    <       0.86946235 Ry

     iteration #  2     ecut=    60.00 Ry     beta= 0.50
     Davidson diagonalization with overlap
     ethr =  5.43E-03,  avg # of iterations =  2.0

     negative rho (up, down):  1.594E-04 0.000E+00

     total cpu time spent up to now is        4.9 secs

     total energy              =     -71.01441054 Ry
     estimated scf accuracy    <       0.11822292 Ry

     iteration #  3     ecut=    60.00 Ry     beta= 0.50
     Davidson diagonalization with overlap
     ethr =  7.39E-04,  avg # of iterations =  2.0

     negative rho (up, down):  9.766E-07 0.000E+00

     total cpu time spent up to now is        6.0 secs

     total energy              =     -71.01666719 Ry
     estimated scf accuracy    <       0.01804698 Ry

     iteration #  4     ecut=    60.00 Ry     beta= 0.50
     Davidson diagonalization with overlap
     ethr =  1.13E-04,  avg # of iterations =  3.0

     negative rho (up, down):  1.304E-07 0.000E+00

     total cpu time spent up to now is        7.3 secs

     total energy              =     -71.01992637 Ry
     estimated scf accuracy    <       0.01446965 Ry

     iteration #  5     ecut=    60.00 Ry     beta= 0.50
     Davidson diagonalization with overlap
     ethr =  9.04E-05,  avg # of iterations =  2.0

     total cpu time spent up to now is        8.5 secs

     total energy              =     -71.02101410 Ry
     estimated scf accuracy    <       0.00114466 Ry

     iteration #  6     ecut=    60.00 Ry     beta= 0.50
     Davidson diagonalization with overlap
     ethr =  7.15E-06,  avg # of iterations =  3.0

     total cpu time spent up to now is        9.8 secs

     total energy              =     -71.02127099 Ry
     estimated scf accuracy    <       0.00005072 Ry

     iteration #  7     ecut=    60.00 Ry     beta= 0.50
     Davidson diagonalization with overlap
     ethr =  3.17E-07,  avg # of iterations =  2.0

     total cpu time spent up to now is       11.0 secs

     total energy              =     -71.02128316 Ry
     estimated scf accuracy    <       0.00000527 Ry

     iteration #  8     ecut=    60.00 Ry     beta= 0.50
     Davidson diagonalization with overlap
     ethr =  3.30E-08,  avg # of iterations =  3.0

     total cpu time spent up to now is       12.4 secs

     total energy              =     -71.02128018 Ry
     estimated scf accuracy    <       0.00002130 Ry

     iteration #  9     ecut=    60.00 Ry     beta= 0.50
     Davidson diagonalization with overlap
     ethr =  3.30E-08,  avg # of iterations =  2.0

     total cpu time spent up to now is       13.7 secs

     total energy              =     -71.02128215 Ry
     estimated scf accuracy    <       0.00000099 Ry

     iteration # 10     ecut=    60.00 Ry     beta= 0.50
     Davidson diagonalization with overlap
     ethr =  6.21E-09,  avg # of iterations =  2.0

     total cpu time spent up to now is       15.0 secs

     total energy              =     -71.02128234 Ry
     estimated scf accuracy    <       0.00000006 Ry

     iteration # 11     ecut=    60.00 Ry     beta= 0.50
     Davidson diagonalization with overlap
     ethr =  3.88E-10,  avg # of iterations =  3.0

     total cpu time spent up to now is       16.1 secs

     End of self-consistent calculation

          k = 0.0000 0.0000 0.0000 ( 45812 PWs)   bands (ev):

   -25.9815 -24.3140 -13.7478 -12.2625 -10.0414  -8.4674  -7.7760  -6.3696

     highest occupied level (ev):    -6.3696

!    total energy              =     -71.02128235 Ry
     estimated scf accuracy    <          4.4E-09 Ry

     The total energy is the sum of the following terms:
     one-electron contribution =    -149.27615570 Ry
     hartree contribution      =      77.77585197 Ry
     xc contribution           =     -19.62556499 Ry
     ewald contribution        =      20.10458637 Ry

     convergence has been achieved in  11 iterations

     Forces acting on atoms (cartesian axes, Ry/au):

     atom    1 type  1   force =    -0.00697509   -0.01136339    0.00562579
     atom    2 type  2   force =     0.00026095    0.00009662    0.00015483
     atom    3 type  2   force =     0.00663587    0.01115232   -0.00576299
     atom    4 type  1   force =     0.00001721    0.00023354    0.00023025
     atom    5 type  2   force =     0.00003466   -0.00002341   -0.00020963
     atom    6 type  2   force =     0.00002640   -0.00009568   -0.00003825
     The non-local contrib.  to forces
     atom    1 type  1   force =     0.77351911   -1.63843419    1.07197556
     atom    2 type  2   force =    -0.20156980    0.02520700   -0.04229335
     atom    3 type  2   force =     0.10300651    0.16218492   -0.08158882
     atom    4 type  1   force =     1.29086345    1.56847760   -0.62617747
     atom    5 type  2   force =    -0.11158612   -0.00546856    0.18522546
     atom    6 type  2   force =    -0.05223854   -0.17462138   -0.11621388
     The ionic contribution  to forces
     atom    1 type  1   force =    -4.48812623    3.44908050   -2.72409761
     atom    2 type  2   force =     2.53396446   -0.41965907    0.55459386
     atom    3 type  2   force =    -2.20009878   -2.95417953    1.43197762
     atom    4 type  1   force =     0.56686376   -3.28552148    1.84964474
     atom    5 type  2   force =     2.32213751    0.06850561   -3.29326857
     atom    6 type  2   force =     1.26525929    3.14177399    2.18114996
     The local contribution  to forces
     atom    1 type  1   force =     3.72833682   -1.86952322    1.68874028
     atom    2 type  2   force =    -2.33212316    0.39455957   -0.51218233
     atom    3 type  2   force =     2.10375738    2.80316680   -1.35619114
     atom    4 type  1   force =    -1.82029775    1.76235788   -1.24112416
     atom    5 type  2   force =    -2.21049240   -0.06305460    3.10780146
     atom    6 type  2   force =    -1.21297005   -2.96724229   -2.06500609
     The core correction contribution to forces
     atom    1 type  1   force =    -0.02071525    0.04755974   -0.03105251
     atom    2 type  2   force =     0.00000000    0.00000000    0.00000000
     atom    3 type  2   force =     0.00000000    0.00000000    0.00000000
     atom    4 type  1   force =    -0.03738975   -0.04508226    0.01785897
     atom    5 type  2   force =     0.00000000    0.00000000    0.00000000
     atom    6 type  2   force =     0.00000000    0.00000000    0.00000000
     The Hubbard contrib.    to forces
     atom    1 type  1   force =     0.00000000    0.00000000    0.00000000
     atom    2 type  2   force =     0.00000000    0.00000000    0.00000000
     atom    3 type  2   force =     0.00000000    0.00000000    0.00000000
     atom    4 type  1   force =     0.00000000    0.00000000    0.00000000
     atom    5 type  2   force =     0.00000000    0.00000000    0.00000000
     atom    6 type  2   force =     0.00000000    0.00000000    0.00000000
     The SCF correction term to forces
     atom    1 type  1   force =     0.00003538   -0.00003913    0.00002766
     atom    2 type  2   force =     0.00001437   -0.00000380    0.00000424
     atom    3 type  2   force =    -0.00000432   -0.00001279    0.00000694
     atom    4 type  1   force =     0.00000243    0.00000888   -0.00000424
     atom    5 type  2   force =     0.00000060    0.00000122   -0.00000039
     atom    6 type  2   force =     0.00000063    0.00000109   -0.00000064

     Total force =     0.020281     Total SCF correction =     0.000064

     init_run     :      2.14s CPU      2.32s WALL (       1 calls)
     electrons    :     12.58s CPU     13.68s WALL (       1 calls)
     forces       :      0.90s CPU      1.00s WALL (       1 calls)

     Called by init_run:
     wfcinit      :      0.23s CPU      0.26s WALL (       1 calls)
     potinit      :      0.69s CPU      0.78s WALL (       1 calls)
     hinit0       :      1.00s CPU      1.04s WALL (       1 calls)

     Called by electrons:
     c_bands      :      5.43s CPU      5.68s WALL (      11 calls)
     sum_band     :      1.75s CPU      1.85s WALL (      11 calls)
     v_of_rho     :      4.54s CPU      5.23s WALL (      12 calls)
     mix_rho      :      1.05s CPU      1.13s WALL (      11 calls)

     Called by c_bands:
     init_us_2    :      0.14s CPU      0.15s WALL (      23 calls)
     init_us_2:cp :      0.14s CPU      0.15s WALL (      23 calls)
     regterg      :      5.17s CPU      5.39s WALL (      11 calls)

     Called by *egterg:
     rdiaghg      :      0.01s CPU      0.01s WALL (      37 calls)
     h_psi        :      5.07s CPU      5.31s WALL (      38 calls)
     g_psi        :      0.02s CPU      0.02s WALL (      26 calls)

     Called by h_psi:
     h_psi:calbec :      0.17s CPU      0.17s WALL (      38 calls)
     vloc_psi     :      4.75s CPU      4.98s WALL (      38 calls)
     add_vuspsi   :      0.13s CPU      0.13s WALL (      38 calls)

     General routines
     calbec       :      0.18s CPU      0.19s WALL (      42 calls)
     fft          :      3.22s CPU      3.67s WALL (     104 calls)
     ffts         :      0.29s CPU      0.32s WALL (      11 calls)
     fftw         :      4.11s CPU      4.33s WALL (     322 calls)

     Parallel routines

     PWSCF        :     15.73s CPU     17.16s WALL


   This run was terminated on:  14: 4:22  12May2025            

=------------------------------------------------------------------------------=
   JOB DONE.
=------------------------------------------------------------------------------=
