
     Program PWSCF v.7.2 starts on 12May2025 at 14: 6:41 

     This program is part of the open-source Quantum ESPRESSO suite
     for quantum simulation of materials; please cite
         "P. Giannozzi et al., J. Phys.:Condens. Matter 21 395502 (2009);
         "P. Giannozzi et al., J. Phys.:Condens. Matter 29 465901 (2017);
         "P. Giannozzi et al., J. Chem. Phys. 152 154105 (2020);
          URL http://www.quantum-espresso.org", 
     in publications or presentations arising from this work. More details at
     http://www.quantum-espresso.org/quote

     Parallel version (MPI), running on     8 processors

     MPI processes distributed on     1 nodes
     206672 MiB available memory on the printing compute node when the environment starts

     Waiting for input...
     Reading input from standard input
Warning: card &CELL ignored
Warning: card / ignored
Warning: card &FCP ignored
Warning: card / ignored
Warning: card &RISM ignored
Warning: card / ignored

     Current dimensions of program PWSCF are:
     Max number of different atomic species (ntypx) = 10
     Max number of k-points (npk) =  40000
     Max angular momentum in pseudopotentials (lmaxx) =  4

     gamma-point specific algorithms are used

     R & G space division:  proc/nbgrp/npool/nimage =       8
     Subspace diagonalization in iterative solution of the eigenvalue problem:
     a serial algorithm will be used


     Parallelization info
     --------------------
     sticks:   dense  smooth     PW     G-vecs:    dense   smooth      PW
     Min        1225    1225    305                91534    91534   11450
     Max        1228    1228    308                91540    91540   11456
     Sum        9809    9809   2449               732287   732287   91623

     Using Slab Decomposition



     bravais-lattice index     =            0
     lattice parameter (alat)  =      22.6767  a.u.
     unit-cell volume          =   11661.1211 (a.u.)^3
     number of atoms/cell      =            6
     number of atomic types    =            2
     number of electrons       =        16.00
     number of Kohn-Sham states=            8
     kinetic-energy cutoff     =      60.0000  Ry
     charge density cutoff     =     240.0000  Ry
     scf convergence threshold =      1.0E-08
     mixing beta               =       0.5000
     number of iterations used =            8  plain     mixing
     Exchange-correlation= PBE
                           (   1   4   3   4   0   0   0)

     celldm(1)=  22.676713  celldm(2)=   0.000000  celldm(3)=   0.000000
     celldm(4)=   0.000000  celldm(5)=   0.000000  celldm(6)=   0.000000

     crystal axes: (cart. coord. in units of alat)
               a(1) = (   1.000000   0.000000   0.000000 )  
               a(2) = (   0.000000   1.000000   0.000000 )  
               a(3) = (   0.000000   0.000000   1.000000 )  

     reciprocal axes: (cart. coord. in units 2 pi/alat)
               b(1) = (  1.000000  0.000000  0.000000 )  
               b(2) = (  0.000000  1.000000  0.000000 )  
               b(3) = (  0.000000  0.000000  1.000000 )  


     PseudoPot. # 1 for O  read from file:
     ./O.upf
     MD5 check sum: 9db02a5ece9d56b81b65a73f8163743d
     Pseudo is Norm-conserving + core correction, Zval =  6.0
     Generated using ONCVPSP code by D. R. Hamann
     Using radial grid of  936 points,  5 beta functions with: 
                l(1) =   0
                l(2) =   0
                l(3) =   1
                l(4) =   1
                l(5) =   2

     PseudoPot. # 2 for H  read from file:
     ./H.upf
     MD5 check sum: e96aa7e3e4a958db16958554ea960e2a
     Pseudo is Norm-conserving, Zval =  1.0
     Generated using ONCVPSP code by D. R. Hamann
     Using radial grid of 1166 points,  3 beta functions with: 
                l(1) =   0
                l(2) =   0
                l(3) =   1

     atomic species   valence    mass     pseudopotential
        O              6.00    15.99900     O ( 1.00)
        H              1.00     1.00800     H ( 1.00)

     No symmetry found



   Cartesian axes

     site n.     atom                  positions (alat units)
         1           O   tau(   1) = (  -0.2503754   0.1086414  -0.0048282  )
         2           H   tau(   2) = (  -0.1718787   0.0966176   0.0129537  )
         3           H   tau(   3) = (  -0.2882844   0.0456469   0.0276401  )
         4           O   tau(   4) = (  -0.0163116   0.0908894   0.0416921  )
         5           H   tau(   5) = (   0.0261601   0.0951935  -0.0257541  )
         6           H   tau(   6) = (   0.0046099   0.1567570   0.0838904  )

     number of k points=     1
                       cart. coord. in units 2pi/alat
        k(    1) = (   0.0000000   0.0000000   0.0000000), wk =   2.0000000

     Dense  grid:   366144 G-vectors     FFT dimensions: ( 120, 120, 120)

     Estimated max dynamical RAM per process >      44.55 MB

     Estimated total dynamical RAM >     356.41 MB

     Check: negative core charge=   -0.000005

     Initial potential from superposition of free atoms

     starting charge      16.0000, renormalised to      16.0000

     negative rho (up, down):  6.066E-04 0.000E+00
     Starting wfcs are   12 randomized atomic wfcs

     total cpu time spent up to now is        2.4 secs

     Self-consistent Calculation

     iteration #  1     ecut=    60.00 Ry     beta= 0.50
     Davidson diagonalization with overlap
     ethr =  1.00E-02,  avg # of iterations =  2.0

     negative rho (up, down):  2.778E-04 0.000E+00

     total cpu time spent up to now is        3.6 secs

     total energy              =     -70.77355237 Ry
     estimated scf accuracy    <       0.87329692 Ry

     iteration #  2     ecut=    60.00 Ry     beta= 0.50
     Davidson diagonalization with overlap
     ethr =  5.46E-03,  avg # of iterations =  2.0

     negative rho (up, down):  1.594E-04 0.000E+00

     total cpu time spent up to now is        4.8 secs

     total energy              =     -71.01449585 Ry
     estimated scf accuracy    <       0.11688217 Ry

     iteration #  3     ecut=    60.00 Ry     beta= 0.50
     Davidson diagonalization with overlap
     ethr =  7.31E-04,  avg # of iterations =  2.0

     negative rho (up, down):  9.331E-07 0.000E+00

     total cpu time spent up to now is        5.9 secs

     total energy              =     -71.01628968 Ry
     estimated scf accuracy    <       0.01820799 Ry

     iteration #  4     ecut=    60.00 Ry     beta= 0.50
     Davidson diagonalization with overlap
     ethr =  1.14E-04,  avg # of iterations =  3.0

     negative rho (up, down):  1.425E-07 0.000E+00

     total cpu time spent up to now is        7.3 secs

     total energy              =     -71.01987066 Ry
     estimated scf accuracy    <       0.01457242 Ry

     iteration #  5     ecut=    60.00 Ry     beta= 0.50
     Davidson diagonalization with overlap
     ethr =  9.11E-05,  avg # of iterations =  2.0

     negative rho (up, down):  6.851E-08 0.000E+00

     total cpu time spent up to now is        8.4 secs

     total energy              =     -71.02106523 Ry
     estimated scf accuracy    <       0.00138528 Ry

     iteration #  6     ecut=    60.00 Ry     beta= 0.50
     Davidson diagonalization with overlap
     ethr =  8.66E-06,  avg # of iterations =  2.0

     total cpu time spent up to now is        9.6 secs

     total energy              =     -71.02104274 Ry
     estimated scf accuracy    <       0.00045899 Ry

     iteration #  7     ecut=    60.00 Ry     beta= 0.50
     Davidson diagonalization with overlap
     ethr =  2.87E-06,  avg # of iterations =  2.0

     total cpu time spent up to now is       10.9 secs

     total energy              =     -71.02119721 Ry
     estimated scf accuracy    <       0.00001551 Ry

     iteration #  8     ecut=    60.00 Ry     beta= 0.50
     Davidson diagonalization with overlap
     ethr =  9.69E-08,  avg # of iterations =  3.0

     total cpu time spent up to now is       12.1 secs

     total energy              =     -71.02120057 Ry
     estimated scf accuracy    <       0.00002201 Ry

     iteration #  9     ecut=    60.00 Ry     beta= 0.50
     Davidson diagonalization with overlap
     ethr =  9.69E-08,  avg # of iterations =  1.0

     total cpu time spent up to now is       13.3 secs

     total energy              =     -71.02119390 Ry
     estimated scf accuracy    <       0.00001452 Ry

     iteration # 10     ecut=    60.00 Ry     beta= 0.50
     Davidson diagonalization with overlap
     ethr =  9.07E-08,  avg # of iterations =  2.0

     total cpu time spent up to now is       14.5 secs

     total energy              =     -71.02119680 Ry
     estimated scf accuracy    <       0.00000003 Ry

     iteration # 11     ecut=    60.00 Ry     beta= 0.50
     Davidson diagonalization with overlap
     ethr =  1.86E-10,  avg # of iterations =  3.0

     total cpu time spent up to now is       15.8 secs

     End of self-consistent calculation

          k = 0.0000 0.0000 0.0000 ( 45812 PWs)   bands (ev):

   -25.9975 -24.3509 -13.7775 -12.3044 -10.0368  -8.4587  -7.7800  -6.3742

     highest occupied level (ev):    -6.3742

!    total energy              =     -71.02119683 Ry
     estimated scf accuracy    <          2.9E-09 Ry

     The total energy is the sum of the following terms:
     one-electron contribution =    -149.43300319 Ry
     hartree contribution      =      77.85224799 Ry
     xc contribution           =     -19.63631387 Ry
     ewald contribution        =      20.19587224 Ry

     convergence has been achieved in  11 iterations

     Forces acting on atoms (cartesian axes, Ry/au):

     atom    1 type  1   force =    -0.00000189    0.00018367   -0.00008114
     atom    2 type  2   force =    -0.00000812    0.00004107   -0.00016163
     atom    3 type  2   force =    -0.00009590   -0.00031734    0.00005458
     atom    4 type  1   force =    -0.00660445    0.00700587    0.01992585
     atom    5 type  2   force =     0.00892481    0.00130174   -0.01401550
     atom    6 type  2   force =    -0.00221445   -0.00821501   -0.00572216
     The non-local contrib.  to forces
     atom    1 type  1   force =     0.76227997   -1.63872115    1.08240549
     atom    2 type  2   force =    -0.20159956    0.02516752   -0.04219912
     atom    3 type  2   force =     0.10681129    0.16618946   -0.08473071
     atom    4 type  1   force =     1.30120933    1.55878834   -0.61825654
     atom    5 type  2   force =    -0.11621611   -0.00584714    0.19050865
     atom    6 type  2   force =    -0.05079485   -0.17032671   -0.11571362
     The ionic contribution  to forces
     atom    1 type  1   force =    -4.45198978    3.48107094   -2.75204257
     atom    2 type  2   force =     2.53299881   -0.42034594    0.55870523
     atom    3 type  2   force =    -2.24347553   -2.98411166    1.46811422
     atom    4 type  1   force =     0.53901711   -3.24516606    1.87359632
     atom    5 type  2   force =     2.37294202    0.07356791   -3.33673513
     atom    6 type  2   force =     1.25050737    3.09498481    2.18836193
     The local contribution  to forces
     atom    1 type  1   force =     3.71034150   -1.88916831    1.70060415
     atom    2 type  2   force =    -2.33139447    0.39523564   -0.51669713
     atom    3 type  2   force =     2.13657948    2.81762105   -1.38335838
     atom    4 type  1   force =    -1.80933481    1.73853805   -1.25240307
     atom    5 type  2   force =    -2.24778183   -0.06640197    3.13217955
     atom    6 type  2   force =    -1.20190834   -2.93285364   -2.07839801
     The core correction contribution to forces
     atom    1 type  1   force =    -0.02066776    0.04702719   -0.03108858
     atom    2 type  2   force =     0.00000000    0.00000000    0.00000000
     atom    3 type  2   force =     0.00000000    0.00000000    0.00000000
     atom    4 type  1   force =    -0.03744278   -0.04512496    0.01695724
     atom    5 type  2   force =     0.00000000    0.00000000    0.00000000
     atom    6 type  2   force =     0.00000000    0.00000000    0.00000000
     The Hubbard contrib.    to forces
     atom    1 type  1   force =     0.00000000    0.00000000    0.00000000
     atom    2 type  2   force =     0.00000000    0.00000000    0.00000000
     atom    3 type  2   force =     0.00000000    0.00000000    0.00000000
     atom    4 type  1   force =     0.00000000    0.00000000    0.00000000
     atom    5 type  2   force =     0.00000000    0.00000000    0.00000000
     atom    6 type  2   force =     0.00000000    0.00000000    0.00000000
     The SCF correction term to forces
     atom    1 type  1   force =     0.00004965   -0.00000876    0.00001150
     atom    2 type  2   force =     0.00000258    0.00000008    0.00000053
     atom    3 type  2   force =     0.00000434    0.00000004    0.00000058
     atom    4 type  1   force =    -0.00003782   -0.00001327    0.00000303
     atom    5 type  2   force =    -0.00000379   -0.00000083    0.00000258
     atom    6 type  2   force =    -0.00000315   -0.00000324   -0.00000133

     Total force =     0.029544     Total SCF correction =     0.000066

     init_run     :      2.10s CPU      2.28s WALL (       1 calls)
     electrons    :     12.34s CPU     13.37s WALL (       1 calls)
     forces       :      0.90s CPU      0.97s WALL (       1 calls)

     Called by init_run:
     wfcinit      :      0.24s CPU      0.26s WALL (       1 calls)
     potinit      :      0.65s CPU      0.75s WALL (       1 calls)
     hinit0       :      0.99s CPU      1.03s WALL (       1 calls)

     Called by electrons:
     c_bands      :      5.17s CPU      5.38s WALL (      11 calls)
     sum_band     :      1.72s CPU      1.84s WALL (      11 calls)
     v_of_rho     :      4.55s CPU      5.23s WALL (      12 calls)
     mix_rho      :      1.06s CPU      1.13s WALL (      11 calls)

     Called by c_bands:
     init_us_2    :      0.14s CPU      0.15s WALL (      23 calls)
     init_us_2:cp :      0.14s CPU      0.15s WALL (      23 calls)
     regterg      :      4.90s CPU      5.09s WALL (      11 calls)

     Called by *egterg:
     rdiaghg      :      0.01s CPU      0.01s WALL (      35 calls)
     h_psi        :      4.83s CPU      5.02s WALL (      36 calls)
     g_psi        :      0.02s CPU      0.02s WALL (      24 calls)

     Called by h_psi:
     h_psi:calbec :      0.16s CPU      0.16s WALL (      36 calls)
     vloc_psi     :      4.53s CPU      4.71s WALL (      36 calls)
     add_vuspsi   :      0.12s CPU      0.12s WALL (      36 calls)

     General routines
     calbec       :      0.17s CPU      0.18s WALL (      40 calls)
     fft          :      3.21s CPU      3.67s WALL (     104 calls)
     ffts         :      0.31s CPU      0.34s WALL (      11 calls)
     fftw         :      3.92s CPU      4.10s WALL (     306 calls)

     Parallel routines

     PWSCF        :     15.44s CPU     16.77s WALL


   This run was terminated on:  14: 6:58  12May2025            

=------------------------------------------------------------------------------=
   JOB DONE.
=------------------------------------------------------------------------------=
