
     Program PWSCF v.7.2 starts on 12May2025 at 14: 8:15 

     This program is part of the open-source Quantum ESPRESSO suite
     for quantum simulation of materials; please cite
         "P. Giannozzi et al., J. Phys.:Condens. Matter 21 395502 (2009);
         "P. Giannozzi et al., J. Phys.:Condens. Matter 29 465901 (2017);
         "P. Giannozzi et al., J. Chem. Phys. 152 154105 (2020);
          URL http://www.quantum-espresso.org", 
     in publications or presentations arising from this work. More details at
     http://www.quantum-espresso.org/quote

     Parallel version (MPI), running on     8 processors

     MPI processes distributed on     1 nodes
     206668 MiB available memory on the printing compute node when the environment starts

     Waiting for input...
     Reading input from standard input
Warning: card &CELL ignored
Warning: card / ignored
Warning: card &FCP ignored
Warning: card / ignored
Warning: card &RISM ignored
Warning: card / ignored

     Current dimensions of program PWSCF are:
     Max number of different atomic species (ntypx) = 10
     Max number of k-points (npk) =  40000
     Max angular momentum in pseudopotentials (lmaxx) =  4

     gamma-point specific algorithms are used

     R & G space division:  proc/nbgrp/npool/nimage =       8
     Subspace diagonalization in iterative solution of the eigenvalue problem:
     a serial algorithm will be used


     Parallelization info
     --------------------
     sticks:   dense  smooth     PW     G-vecs:    dense   smooth      PW
     Min        1225    1225    305                91534    91534   11450
     Max        1228    1228    308                91540    91540   11456
     Sum        9809    9809   2449               732287   732287   91623

     Using Slab Decomposition



     bravais-lattice index     =            0
     lattice parameter (alat)  =      22.6767  a.u.
     unit-cell volume          =   11661.1211 (a.u.)^3
     number of atoms/cell      =            6
     number of atomic types    =            2
     number of electrons       =        16.00
     number of Kohn-Sham states=            8
     kinetic-energy cutoff     =      60.0000  Ry
     charge density cutoff     =     240.0000  Ry
     scf convergence threshold =      1.0E-08
     mixing beta               =       0.5000
     number of iterations used =            8  plain     mixing
     Exchange-correlation= PBE
                           (   1   4   3   4   0   0   0)

     celldm(1)=  22.676713  celldm(2)=   0.000000  celldm(3)=   0.000000
     celldm(4)=   0.000000  celldm(5)=   0.000000  celldm(6)=   0.000000

     crystal axes: (cart. coord. in units of alat)
               a(1) = (   1.000000   0.000000   0.000000 )  
               a(2) = (   0.000000   1.000000   0.000000 )  
               a(3) = (   0.000000   0.000000   1.000000 )  

     reciprocal axes: (cart. coord. in units 2 pi/alat)
               b(1) = (  1.000000  0.000000  0.000000 )  
               b(2) = (  0.000000  1.000000  0.000000 )  
               b(3) = (  0.000000  0.000000  1.000000 )  


     PseudoPot. # 1 for O  read from file:
     ./O.upf
     MD5 check sum: 9db02a5ece9d56b81b65a73f8163743d
     Pseudo is Norm-conserving + core correction, Zval =  6.0
     Generated using ONCVPSP code by D. R. Hamann
     Using radial grid of  936 points,  5 beta functions with: 
                l(1) =   0
                l(2) =   0
                l(3) =   1
                l(4) =   1
                l(5) =   2

     PseudoPot. # 2 for H  read from file:
     ./H.upf
     MD5 check sum: e96aa7e3e4a958db16958554ea960e2a
     Pseudo is Norm-conserving, Zval =  1.0
     Generated using ONCVPSP code by D. R. Hamann
     Using radial grid of 1166 points,  3 beta functions with: 
                l(1) =   0
                l(2) =   0
                l(3) =   1

     atomic species   valence    mass     pseudopotential
        O              6.00    15.99900     O ( 1.00)
        H              1.00     1.00800     H ( 1.00)

     No symmetry found



   Cartesian axes

     site n.     atom                  positions (alat units)
         1           O   tau(   1) = (  -0.2503754   0.1086414  -0.0048282  )
         2           H   tau(   2) = (  -0.1718787   0.0966176   0.0129537  )
         3           H   tau(   3) = (  -0.2882844   0.0456469   0.0276401  )
         4           O   tau(   4) = (  -0.0163116   0.0908894   0.0425254  )
         5           H   tau(   5) = (   0.0261601   0.0960268  -0.0257541  )
         6           H   tau(   6) = (   0.0046099   0.1567570   0.0838904  )

     number of k points=     1
                       cart. coord. in units 2pi/alat
        k(    1) = (   0.0000000   0.0000000   0.0000000), wk =   2.0000000

     Dense  grid:   366144 G-vectors     FFT dimensions: ( 120, 120, 120)

     Estimated max dynamical RAM per process >      44.55 MB

     Estimated total dynamical RAM >     356.41 MB

     Check: negative core charge=   -0.000005

     Initial potential from superposition of free atoms

     starting charge      16.0000, renormalised to      16.0000

     negative rho (up, down):  6.060E-04 0.000E+00
     Starting wfcs are   12 randomized atomic wfcs

     total cpu time spent up to now is        2.4 secs

     Self-consistent Calculation

     iteration #  1     ecut=    60.00 Ry     beta= 0.50
     Davidson diagonalization with overlap
     ethr =  1.00E-02,  avg # of iterations =  2.0

     negative rho (up, down):  2.776E-04 0.000E+00

     total cpu time spent up to now is        3.6 secs

     total energy              =     -70.77402164 Ry
     estimated scf accuracy    <       0.87134655 Ry

     iteration #  2     ecut=    60.00 Ry     beta= 0.50
     Davidson diagonalization with overlap
     ethr =  5.45E-03,  avg # of iterations =  2.0

     negative rho (up, down):  1.594E-04 0.000E+00

     total cpu time spent up to now is        4.8 secs

     total energy              =     -71.01462505 Ry
     estimated scf accuracy    <       0.11728996 Ry

     iteration #  3     ecut=    60.00 Ry     beta= 0.50
     Davidson diagonalization with overlap
     ethr =  7.33E-04,  avg # of iterations =  2.0

     negative rho (up, down):  9.131E-07 0.000E+00

     total cpu time spent up to now is        5.9 secs

     total energy              =     -71.01642495 Ry
     estimated scf accuracy    <       0.01826068 Ry

     iteration #  4     ecut=    60.00 Ry     beta= 0.50
     Davidson diagonalization with overlap
     ethr =  1.14E-04,  avg # of iterations =  3.0

     negative rho (up, down):  1.405E-07 0.000E+00

     total cpu time spent up to now is        7.2 secs

     total energy              =     -71.01989350 Ry
     estimated scf accuracy    <       0.01524455 Ry

     iteration #  5     ecut=    60.00 Ry     beta= 0.50
     Davidson diagonalization with overlap
     ethr =  9.53E-05,  avg # of iterations =  2.0

     negative rho (up, down):  2.867E-08 0.000E+00

     total cpu time spent up to now is        8.4 secs

     total energy              =     -71.02112825 Ry
     estimated scf accuracy    <       0.00130058 Ry

     iteration #  6     ecut=    60.00 Ry     beta= 0.50
     Davidson diagonalization with overlap
     ethr =  8.13E-06,  avg # of iterations =  3.0

     total cpu time spent up to now is        9.7 secs

     total energy              =     -71.02132260 Ry
     estimated scf accuracy    <       0.00014567 Ry

     iteration #  7     ecut=    60.00 Ry     beta= 0.50
     Davidson diagonalization with overlap
     ethr =  9.10E-07,  avg # of iterations =  3.0

     total cpu time spent up to now is       10.9 secs

     total energy              =     -71.02137737 Ry
     estimated scf accuracy    <       0.00000464 Ry

     iteration #  8     ecut=    60.00 Ry     beta= 0.50
     Davidson diagonalization with overlap
     ethr =  2.90E-08,  avg # of iterations =  3.0

     total cpu time spent up to now is       12.2 secs

     total energy              =     -71.02137113 Ry
     estimated scf accuracy    <       0.00002798 Ry

     iteration #  9     ecut=    60.00 Ry     beta= 0.50
     Davidson diagonalization with overlap
     ethr =  2.90E-08,  avg # of iterations =  2.0

     total cpu time spent up to now is       13.5 secs

     total energy              =     -71.02137273 Ry
     estimated scf accuracy    <       0.00000255 Ry

     iteration # 10     ecut=    60.00 Ry     beta= 0.50
     Davidson diagonalization with overlap
     ethr =  1.59E-08,  avg # of iterations =  2.0

     total cpu time spent up to now is       14.8 secs

     total energy              =     -71.02137304 Ry
     estimated scf accuracy    <       0.00000027 Ry

     iteration # 11     ecut=    60.00 Ry     beta= 0.50
     Davidson diagonalization with overlap
     ethr =  1.67E-09,  avg # of iterations =  2.0

     total cpu time spent up to now is       16.0 secs

     total energy              =     -71.02137305 Ry
     estimated scf accuracy    <       0.00000008 Ry

     iteration # 12     ecut=    60.00 Ry     beta= 0.50
     Davidson diagonalization with overlap
     ethr =  5.26E-10,  avg # of iterations =  2.0

     total cpu time spent up to now is       17.2 secs

     total energy              =     -71.02137305 Ry
     estimated scf accuracy    <       0.00000002 Ry

     iteration # 13     ecut=    60.00 Ry     beta= 0.50
     Davidson diagonalization with overlap
     ethr =  1.56E-10,  avg # of iterations =  2.0

     total cpu time spent up to now is       18.2 secs

     End of self-consistent calculation

          k = 0.0000 0.0000 0.0000 ( 45812 PWs)   bands (ev):

   -25.9886 -24.3539 -13.7209 -12.3070 -10.0651  -8.4670  -7.7777  -6.3769

     highest occupied level (ev):    -6.3769

!    total energy              =     -71.02137305 Ry
     estimated scf accuracy    <          3.7E-09 Ry

     The total energy is the sum of the following terms:
     one-electron contribution =    -149.36535248 Ry
     hartree contribution      =      77.81739717 Ry
     xc contribution           =     -19.63245517 Ry
     ewald contribution        =      20.15903743 Ry

     convergence has been achieved in  13 iterations

     Forces acting on atoms (cartesian axes, Ry/au):

     atom    1 type  1   force =     0.00008832    0.00019114   -0.00020326
     atom    2 type  2   force =    -0.00009915    0.00005829    0.00012858
     atom    3 type  2   force =    -0.00007799   -0.00033272    0.00007382
     atom    4 type  1   force =     0.00166225    0.00145426   -0.00114633
     atom    5 type  2   force =    -0.00085462   -0.00132710   -0.00018334
     atom    6 type  2   force =    -0.00071881   -0.00004387    0.00133053
     The non-local contrib.  to forces
     atom    1 type  1   force =     0.76292315   -1.63893154    1.08175278
     atom    2 type  2   force =    -0.20158964    0.02516770   -0.04222770
     atom    3 type  2   force =     0.10681946    0.16619184   -0.08473666
     atom    4 type  1   force =     1.28636522    1.58333420   -0.62328776
     atom    5 type  2   force =    -0.11138063   -0.00782697    0.18469212
     atom    6 type  2   force =    -0.05238074   -0.17463921   -0.11608186
     The ionic contribution  to forces
     atom    1 type  1   force =    -4.44727426    3.47985166   -2.75918359
     atom    2 type  2   force =     2.53564483   -0.42082695    0.55438225
     atom    3 type  2   force =    -2.24329443   -2.98417020    1.46724324
     atom    4 type  1   force =     0.57075345   -3.32305964    1.84412411
     atom    5 type  2   force =     2.31920048    0.10695584   -3.28967734
     atom    6 type  2   force =     1.26496992    3.14124929    2.18311134
     The local contribution  to forces
     atom    1 type  1   force =     3.70515786   -1.88777260    1.70825951
     atom    2 type  2   force =    -2.33412979    0.39573206   -0.51206280
     atom    3 type  2   force =     2.13641338    2.81765414   -1.38246705
     atom    4 type  1   force =    -1.81817620    1.78668493   -1.23982767
     atom    5 type  2   force =    -2.20864448   -0.10043701    3.10475207
     atom    6 type  2   force =    -1.21328145   -2.96662528   -2.06573124
     The core correction contribution to forces
     atom    1 type  1   force =    -0.02070410    0.04704515   -0.03106215
     atom    2 type  2   force =     0.00000000    0.00000000    0.00000000
     atom    3 type  2   force =     0.00000000    0.00000000    0.00000000
     atom    4 type  1   force =    -0.03722778   -0.04545284    0.01779315
     atom    5 type  2   force =     0.00000000    0.00000000    0.00000000
     atom    6 type  2   force =     0.00000000    0.00000000    0.00000000
     The Hubbard contrib.    to forces
     atom    1 type  1   force =     0.00000000    0.00000000    0.00000000
     atom    2 type  2   force =     0.00000000    0.00000000    0.00000000
     atom    3 type  2   force =     0.00000000    0.00000000    0.00000000
     atom    4 type  1   force =     0.00000000    0.00000000    0.00000000
     atom    5 type  2   force =     0.00000000    0.00000000    0.00000000
     atom    6 type  2   force =     0.00000000    0.00000000    0.00000000
     The SCF correction term to forces
     atom    1 type  1   force =     0.00000670    0.00001412   -0.00000778
     atom    2 type  2   force =    -0.00000353    0.00000114   -0.00000114
     atom    3 type  2   force =     0.00000462    0.00000717   -0.00000368
     atom    4 type  1   force =    -0.00003143   -0.00003673    0.00001388
     atom    5 type  2   force =    -0.00000898   -0.00000331    0.00001184
     atom    6 type  2   force =    -0.00000553   -0.00001301   -0.00000568

     Total force =     0.003353     Total SCF correction =     0.000058

     init_run     :      2.10s CPU      2.27s WALL (       1 calls)
     electrons    :     14.58s CPU     15.85s WALL (       1 calls)
     forces       :      0.90s CPU      1.00s WALL (       1 calls)

     Called by init_run:
     wfcinit      :      0.24s CPU      0.26s WALL (       1 calls)
     potinit      :      0.65s CPU      0.75s WALL (       1 calls)
     hinit0       :      0.99s CPU      1.03s WALL (       1 calls)

     Called by electrons:
     c_bands      :      6.01s CPU      6.29s WALL (      13 calls)
     sum_band     :      2.03s CPU      2.16s WALL (      13 calls)
     v_of_rho     :      5.33s CPU      6.12s WALL (      14 calls)
     mix_rho      :      1.34s CPU      1.44s WALL (      13 calls)

     Called by c_bands:
     init_us_2    :      0.17s CPU      0.18s WALL (      27 calls)
     init_us_2:cp :      0.17s CPU      0.18s WALL (      27 calls)
     regterg      :      5.70s CPU      5.95s WALL (      13 calls)

     Called by *egterg:
     rdiaghg      :      0.01s CPU      0.01s WALL (      43 calls)
     h_psi        :      5.56s CPU      5.82s WALL (      44 calls)
     g_psi        :      0.02s CPU      0.02s WALL (      30 calls)

     Called by h_psi:
     h_psi:calbec :      0.22s CPU      0.22s WALL (      44 calls)
     vloc_psi     :      5.17s CPU      5.42s WALL (      44 calls)
     add_vuspsi   :      0.15s CPU      0.15s WALL (      44 calls)

     General routines
     calbec       :      0.23s CPU      0.24s WALL (      48 calls)
     fft          :      3.56s CPU      4.09s WALL (     120 calls)
     ffts         :      0.33s CPU      0.37s WALL (      13 calls)
     fftw         :      4.59s CPU      4.84s WALL (     358 calls)

     Parallel routines

     PWSCF        :     17.68s CPU     19.27s WALL


   This run was terminated on:  14: 8:35  12May2025            

=------------------------------------------------------------------------------=
   JOB DONE.
=------------------------------------------------------------------------------=
