
     Program PWSCF v.7.2 starts on 12May2025 at 14: 0:31 

     This program is part of the open-source Quantum ESPRESSO suite
     for quantum simulation of materials; please cite
         "P. Giannozzi et al., J. Phys.:Condens. Matter 21 395502 (2009);
         "P. Giannozzi et al., J. Phys.:Condens. Matter 29 465901 (2017);
         "P. Giannozzi et al., J. Chem. Phys. 152 154105 (2020);
          URL http://www.quantum-espresso.org", 
     in publications or presentations arising from this work. More details at
     http://www.quantum-espresso.org/quote

     Parallel version (MPI), running on     8 processors

     MPI processes distributed on     1 nodes
     205623 MiB available memory on the printing compute node when the environment starts

     Waiting for input...
     Reading input from standard input
Warning: card &CELL ignored
Warning: card / ignored
Warning: card &FCP ignored
Warning: card / ignored
Warning: card &RISM ignored
Warning: card / ignored

     Current dimensions of program PWSCF are:
     Max number of different atomic species (ntypx) = 10
     Max number of k-points (npk) =  40000
     Max angular momentum in pseudopotentials (lmaxx) =  4

     gamma-point specific algorithms are used

     R & G space division:  proc/nbgrp/npool/nimage =       8
     Subspace diagonalization in iterative solution of the eigenvalue problem:
     a serial algorithm will be used


     Parallelization info
     --------------------
     sticks:   dense  smooth     PW     G-vecs:    dense   smooth      PW
     Min        1225    1225    305                91534    91534   11450
     Max        1228    1228    308                91540    91540   11456
     Sum        9809    9809   2449               732287   732287   91623

     Using Slab Decomposition



     bravais-lattice index     =            0
     lattice parameter (alat)  =      22.6767  a.u.
     unit-cell volume          =   11661.1211 (a.u.)^3
     number of atoms/cell      =            6
     number of atomic types    =            2
     number of electrons       =        16.00
     number of Kohn-Sham states=            8
     kinetic-energy cutoff     =      60.0000  Ry
     charge density cutoff     =     240.0000  Ry
     scf convergence threshold =      1.0E-08
     mixing beta               =       0.5000
     number of iterations used =            8  plain     mixing
     Exchange-correlation= PBE
                           (   1   4   3   4   0   0   0)

     celldm(1)=  22.676713  celldm(2)=   0.000000  celldm(3)=   0.000000
     celldm(4)=   0.000000  celldm(5)=   0.000000  celldm(6)=   0.000000

     crystal axes: (cart. coord. in units of alat)
               a(1) = (   1.000000   0.000000   0.000000 )  
               a(2) = (   0.000000   1.000000   0.000000 )  
               a(3) = (   0.000000   0.000000   1.000000 )  

     reciprocal axes: (cart. coord. in units 2 pi/alat)
               b(1) = (  1.000000  0.000000  0.000000 )  
               b(2) = (  0.000000  1.000000  0.000000 )  
               b(3) = (  0.000000  0.000000  1.000000 )  


     PseudoPot. # 1 for O  read from file:
     ./O.upf
     MD5 check sum: 9db02a5ece9d56b81b65a73f8163743d
     Pseudo is Norm-conserving + core correction, Zval =  6.0
     Generated using ONCVPSP code by D. R. Hamann
     Using radial grid of  936 points,  5 beta functions with: 
                l(1) =   0
                l(2) =   0
                l(3) =   1
                l(4) =   1
                l(5) =   2

     PseudoPot. # 2 for H  read from file:
     ./H.upf
     MD5 check sum: e96aa7e3e4a958db16958554ea960e2a
     Pseudo is Norm-conserving, Zval =  1.0
     Generated using ONCVPSP code by D. R. Hamann
     Using radial grid of 1166 points,  3 beta functions with: 
                l(1) =   0
                l(2) =   0
                l(3) =   1

     atomic species   valence    mass     pseudopotential
        O              6.00    15.99900     O ( 1.00)
        H              1.00     1.00800     H ( 1.00)

     No symmetry found



   Cartesian axes

     site n.     atom                  positions (alat units)
         1           O   tau(   1) = (  -0.2503754   0.1094747  -0.0048282  )
         2           H   tau(   2) = (  -0.1718787   0.0966176   0.0129537  )
         3           H   tau(   3) = (  -0.2882844   0.0456469   0.0276401  )
         4           O   tau(   4) = (  -0.0163116   0.0908894   0.0425254  )
         5           H   tau(   5) = (   0.0261601   0.0951935  -0.0257541  )
         6           H   tau(   6) = (   0.0046099   0.1567570   0.0838904  )

     number of k points=     1
                       cart. coord. in units 2pi/alat
        k(    1) = (   0.0000000   0.0000000   0.0000000), wk =   2.0000000

     Dense  grid:   366144 G-vectors     FFT dimensions: ( 120, 120, 120)

     Estimated max dynamical RAM per process >      44.55 MB

     Estimated total dynamical RAM >     356.41 MB

     Check: negative core charge=   -0.000005

     Initial potential from superposition of free atoms

     starting charge      16.0000, renormalised to      16.0000

     negative rho (up, down):  6.054E-04 0.000E+00
     Starting wfcs are   12 randomized atomic wfcs

     total cpu time spent up to now is        2.4 secs

     Self-consistent Calculation

     iteration #  1     ecut=    60.00 Ry     beta= 0.50
     Davidson diagonalization with overlap
     ethr =  1.00E-02,  avg # of iterations =  2.0

     negative rho (up, down):  2.773E-04 0.000E+00

     total cpu time spent up to now is        3.6 secs

     total energy              =     -70.77407201 Ry
     estimated scf accuracy    <       0.86849608 Ry

     iteration #  2     ecut=    60.00 Ry     beta= 0.50
     Davidson diagonalization with overlap
     ethr =  5.43E-03,  avg # of iterations =  2.0

     negative rho (up, down):  1.594E-04 0.000E+00

     total cpu time spent up to now is        4.9 secs

     total energy              =     -71.01438336 Ry
     estimated scf accuracy    <       0.11835587 Ry

     iteration #  3     ecut=    60.00 Ry     beta= 0.50
     Davidson diagonalization with overlap
     ethr =  7.40E-04,  avg # of iterations =  2.0

     negative rho (up, down):  9.823E-07 0.000E+00

     total cpu time spent up to now is        6.0 secs

     total energy              =     -71.01663178 Ry
     estimated scf accuracy    <       0.01806784 Ry

     iteration #  4     ecut=    60.00 Ry     beta= 0.50
     Davidson diagonalization with overlap
     ethr =  1.13E-04,  avg # of iterations =  3.0

     negative rho (up, down):  1.291E-07 0.000E+00

     total cpu time spent up to now is        7.3 secs

     total energy              =     -71.01990714 Ry
     estimated scf accuracy    <       0.01454491 Ry

     iteration #  5     ecut=    60.00 Ry     beta= 0.50
     Davidson diagonalization with overlap
     ethr =  9.09E-05,  avg # of iterations =  2.0

     total cpu time spent up to now is        8.5 secs

     total energy              =     -71.02099464 Ry
     estimated scf accuracy    <       0.00115821 Ry

     iteration #  6     ecut=    60.00 Ry     beta= 0.50
     Davidson diagonalization with overlap
     ethr =  7.24E-06,  avg # of iterations =  3.0

     total cpu time spent up to now is        9.8 secs

     total energy              =     -71.02125234 Ry
     estimated scf accuracy    <       0.00005144 Ry

     iteration #  7     ecut=    60.00 Ry     beta= 0.50
     Davidson diagonalization with overlap
     ethr =  3.22E-07,  avg # of iterations =  2.0

     total cpu time spent up to now is       11.0 secs

     total energy              =     -71.02126502 Ry
     estimated scf accuracy    <       0.00000513 Ry

     iteration #  8     ecut=    60.00 Ry     beta= 0.50
     Davidson diagonalization with overlap
     ethr =  3.20E-08,  avg # of iterations =  3.0

     total cpu time spent up to now is       12.4 secs

     total energy              =     -71.02126194 Ry
     estimated scf accuracy    <       0.00002115 Ry

     iteration #  9     ecut=    60.00 Ry     beta= 0.50
     Davidson diagonalization with overlap
     ethr =  3.20E-08,  avg # of iterations =  2.0

     total cpu time spent up to now is       13.7 secs

     total energy              =     -71.02126393 Ry
     estimated scf accuracy    <       0.00000096 Ry

     iteration # 10     ecut=    60.00 Ry     beta= 0.50
     Davidson diagonalization with overlap
     ethr =  5.98E-09,  avg # of iterations =  2.0

     total cpu time spent up to now is       15.0 secs

     total energy              =     -71.02126411 Ry
     estimated scf accuracy    <       0.00000006 Ry

     iteration # 11     ecut=    60.00 Ry     beta= 0.50
     Davidson diagonalization with overlap
     ethr =  3.77E-10,  avg # of iterations =  3.0

     total cpu time spent up to now is       16.2 secs

     End of self-consistent calculation

          k = 0.0000 0.0000 0.0000 ( 45812 PWs)   bands (ev):

   -25.9816 -24.3150 -13.7479 -12.2333 -10.0422  -8.4862  -7.7786  -6.3703

     highest occupied level (ev):    -6.3703

!    total energy              =     -71.02126413 Ry
     estimated scf accuracy    <          4.5E-09 Ry

     The total energy is the sum of the following terms:
     one-electron contribution =    -149.25825828 Ry
     hartree contribution      =      77.76646716 Ry
     xc contribution           =     -19.62428354 Ry
     ewald contribution        =      20.09481055 Ry

     convergence has been achieved in  11 iterations

     Forces acting on atoms (cartesian axes, Ry/au):

     atom    1 type  1   force =    -0.00377487   -0.01303409    0.00694158
     atom    2 type  2   force =    -0.00147209    0.00185177   -0.00095231
     atom    3 type  2   force =     0.00519285    0.01117332   -0.00596572
     atom    4 type  1   force =     0.00005965    0.00010719    0.00023701
     atom    5 type  2   force =     0.00002787   -0.00001576   -0.00020974
     atom    6 type  2   force =    -0.00003341   -0.00008243   -0.00005082
     The non-local contrib.  to forces
     atom    1 type  1   force =     0.76744803   -1.65148875    1.06854887
     atom    2 type  2   force =    -0.20011948    0.02723363   -0.04207252
     atom    3 type  2   force =     0.10283520    0.16221129   -0.08166622
     atom    4 type  1   force =     1.29067712    1.56782925   -0.62612540
     atom    5 type  2   force =    -0.11158810   -0.00547428    0.18522430
     atom    6 type  2   force =    -0.05224237   -0.17462651   -0.11621402
     The ionic contribution  to forces
     atom    1 type  1   force =    -4.47067419    3.49211547   -2.72028388
     atom    2 type  2   force =     2.51975134   -0.45384346    0.55077944
     atom    3 type  2   force =    -2.20235928   -2.95246621    1.43215499
     atom    4 type  1   force =     0.56543515   -3.29429850    1.84928952
     atom    5 type  2   force =     2.32204648    0.06757398   -3.29326570
     atom    6 type  2   force =     1.26580050    3.14091872    2.18132563
     The local contribution  to forces
     atom    1 type  1   force =     3.72007675   -1.90145548    1.68956225
     atom    2 type  2   force =    -2.32109682    0.42847135   -0.50969331
     atom    3 type  2   force =     2.10474302    2.80144699   -1.35649132
     atom    4 type  1   force =    -1.81865331    1.77162765   -1.24082138
     atom    5 type  2   force =    -2.21040913   -0.06211085    3.10780205
     atom    6 type  2   force =    -1.21357025   -2.96636970   -2.06519148
     The core correction contribution to forces
     atom    1 type  1   force =    -0.02064044    0.04783986   -0.03094317
     atom    2 type  2   force =     0.00000000    0.00000000    0.00000000
     atom    3 type  2   force =     0.00000000    0.00000000    0.00000000
     atom    4 type  1   force =    -0.03737891   -0.04505319    0.01786838
     atom    5 type  2   force =     0.00000000    0.00000000    0.00000000
     atom    6 type  2   force =     0.00000000    0.00000000    0.00000000
     The Hubbard contrib.    to forces
     atom    1 type  1   force =     0.00000000    0.00000000    0.00000000
     atom    2 type  2   force =     0.00000000    0.00000000    0.00000000
     atom    3 type  2   force =     0.00000000    0.00000000    0.00000000
     atom    4 type  1   force =     0.00000000    0.00000000    0.00000000
     atom    5 type  2   force =     0.00000000    0.00000000    0.00000000
     atom    6 type  2   force =     0.00000000    0.00000000    0.00000000
     The SCF correction term to forces
     atom    1 type  1   force =     0.00003678   -0.00003943    0.00002772
     atom    2 type  2   force =     0.00001466   -0.00000399    0.00000429
     atom    3 type  2   force =    -0.00000430   -0.00001299    0.00000704
     atom    4 type  1   force =     0.00000141    0.00000774   -0.00000391
     atom    5 type  2   force =     0.00000042    0.00000116   -0.00000019
     atom    6 type  2   force =     0.00000052    0.00000083   -0.00000075

     Total force =     0.020648     Total SCF correction =     0.000065

     init_run     :      2.10s CPU      2.28s WALL (       1 calls)
     electrons    :     12.63s CPU     13.74s WALL (       1 calls)
     forces       :      0.92s CPU      1.01s WALL (       1 calls)

     Called by init_run:
     wfcinit      :      0.24s CPU      0.26s WALL (       1 calls)
     potinit      :      0.66s CPU      0.75s WALL (       1 calls)
     hinit0       :      0.99s CPU      1.03s WALL (       1 calls)

     Called by electrons:
     c_bands      :      5.46s CPU      5.72s WALL (      11 calls)
     sum_band     :      1.72s CPU      1.83s WALL (      11 calls)
     v_of_rho     :      4.56s CPU      5.24s WALL (      12 calls)
     mix_rho      :      1.03s CPU      1.12s WALL (      11 calls)

     Called by c_bands:
     init_us_2    :      0.15s CPU      0.15s WALL (      23 calls)
     init_us_2:cp :      0.15s CPU      0.15s WALL (      23 calls)
     regterg      :      5.19s CPU      5.42s WALL (      11 calls)

     Called by *egterg:
     rdiaghg      :      0.01s CPU      0.01s WALL (      37 calls)
     h_psi        :      5.08s CPU      5.32s WALL (      38 calls)
     g_psi        :      0.02s CPU      0.02s WALL (      26 calls)

     Called by h_psi:
     h_psi:calbec :      0.17s CPU      0.17s WALL (      38 calls)
     vloc_psi     :      4.75s CPU      4.99s WALL (      38 calls)
     add_vuspsi   :      0.13s CPU      0.13s WALL (      38 calls)

     General routines
     calbec       :      0.18s CPU      0.19s WALL (      42 calls)
     fft          :      3.17s CPU      3.61s WALL (     104 calls)
     ffts         :      0.33s CPU      0.36s WALL (      11 calls)
     fftw         :      4.35s CPU      4.59s WALL (     322 calls)

     Parallel routines

     PWSCF        :     15.75s CPU     17.20s WALL


   This run was terminated on:  14: 0:48  12May2025            

=------------------------------------------------------------------------------=
   JOB DONE.
=------------------------------------------------------------------------------=
