
     Program PWSCF v.7.2 starts on 12May2025 at 14: 1:49 

     This program is part of the open-source Quantum ESPRESSO suite
     for quantum simulation of materials; please cite
         "P. Giannozzi et al., J. Phys.:Condens. Matter 21 395502 (2009);
         "P. Giannozzi et al., J. Phys.:Condens. Matter 29 465901 (2017);
         "P. Giannozzi et al., J. Chem. Phys. 152 154105 (2020);
          URL http://www.quantum-espresso.org", 
     in publications or presentations arising from this work. More details at
     http://www.quantum-espresso.org/quote

     Parallel version (MPI), running on     8 processors

     MPI processes distributed on     1 nodes
     205619 MiB available memory on the printing compute node when the environment starts

     Waiting for input...
     Reading input from standard input
Warning: card &CELL ignored
Warning: card / ignored
Warning: card &FCP ignored
Warning: card / ignored
Warning: card &RISM ignored
Warning: card / ignored

     Current dimensions of program PWSCF are:
     Max number of different atomic species (ntypx) = 10
     Max number of k-points (npk) =  40000
     Max angular momentum in pseudopotentials (lmaxx) =  4

     gamma-point specific algorithms are used

     R & G space division:  proc/nbgrp/npool/nimage =       8
     Subspace diagonalization in iterative solution of the eigenvalue problem:
     a serial algorithm will be used


     Parallelization info
     --------------------
     sticks:   dense  smooth     PW     G-vecs:    dense   smooth      PW
     Min        1225    1225    305                91534    91534   11450
     Max        1228    1228    308                91540    91540   11456
     Sum        9809    9809   2449               732287   732287   91623

     Using Slab Decomposition



     bravais-lattice index     =            0
     lattice parameter (alat)  =      22.6767  a.u.
     unit-cell volume          =   11661.1211 (a.u.)^3
     number of atoms/cell      =            6
     number of atomic types    =            2
     number of electrons       =        16.00
     number of Kohn-Sham states=            8
     kinetic-energy cutoff     =      60.0000  Ry
     charge density cutoff     =     240.0000  Ry
     scf convergence threshold =      1.0E-08
     mixing beta               =       0.5000
     number of iterations used =            8  plain     mixing
     Exchange-correlation= PBE
                           (   1   4   3   4   0   0   0)

     celldm(1)=  22.676713  celldm(2)=   0.000000  celldm(3)=   0.000000
     celldm(4)=   0.000000  celldm(5)=   0.000000  celldm(6)=   0.000000

     crystal axes: (cart. coord. in units of alat)
               a(1) = (   1.000000   0.000000   0.000000 )  
               a(2) = (   0.000000   1.000000   0.000000 )  
               a(3) = (   0.000000   0.000000   1.000000 )  

     reciprocal axes: (cart. coord. in units 2 pi/alat)
               b(1) = (  1.000000  0.000000  0.000000 )  
               b(2) = (  0.000000  1.000000  0.000000 )  
               b(3) = (  0.000000  0.000000  1.000000 )  


     PseudoPot. # 1 for O  read from file:
     ./O.upf
     MD5 check sum: 9db02a5ece9d56b81b65a73f8163743d
     Pseudo is Norm-conserving + core correction, Zval =  6.0
     Generated using ONCVPSP code by D. R. Hamann
     Using radial grid of  936 points,  5 beta functions with: 
                l(1) =   0
                l(2) =   0
                l(3) =   1
                l(4) =   1
                l(5) =   2

     PseudoPot. # 2 for H  read from file:
     ./H.upf
     MD5 check sum: e96aa7e3e4a958db16958554ea960e2a
     Pseudo is Norm-conserving, Zval =  1.0
     Generated using ONCVPSP code by D. R. Hamann
     Using radial grid of 1166 points,  3 beta functions with: 
                l(1) =   0
                l(2) =   0
                l(3) =   1

     atomic species   valence    mass     pseudopotential
        O              6.00    15.99900     O ( 1.00)
        H              1.00     1.00800     H ( 1.00)

     No symmetry found



   Cartesian axes

     site n.     atom                  positions (alat units)
         1           O   tau(   1) = (  -0.2503754   0.1086414  -0.0048282  )
         2           H   tau(   2) = (  -0.1710454   0.0966176   0.0129537  )
         3           H   tau(   3) = (  -0.2882844   0.0456469   0.0276401  )
         4           O   tau(   4) = (  -0.0163116   0.0908894   0.0425254  )
         5           H   tau(   5) = (   0.0261601   0.0951935  -0.0257541  )
         6           H   tau(   6) = (   0.0046099   0.1567570   0.0838904  )

     number of k points=     1
                       cart. coord. in units 2pi/alat
        k(    1) = (   0.0000000   0.0000000   0.0000000), wk =   2.0000000

     Dense  grid:   366144 G-vectors     FFT dimensions: ( 120, 120, 120)

     Estimated max dynamical RAM per process >      44.55 MB

     Estimated total dynamical RAM >     356.41 MB

     Check: negative core charge=   -0.000005

     Initial potential from superposition of free atoms

     starting charge      16.0000, renormalised to      16.0000

     negative rho (up, down):  6.058E-04 0.000E+00
     Starting wfcs are   12 randomized atomic wfcs

     total cpu time spent up to now is        2.4 secs

     Self-consistent Calculation

     iteration #  1     ecut=    60.00 Ry     beta= 0.50
     Davidson diagonalization with overlap
     ethr =  1.00E-02,  avg # of iterations =  2.0

     negative rho (up, down):  2.775E-04 0.000E+00

     total cpu time spent up to now is        3.6 secs

     total energy              =     -70.77442581 Ry
     estimated scf accuracy    <       0.86828515 Ry

     iteration #  2     ecut=    60.00 Ry     beta= 0.50
     Davidson diagonalization with overlap
     ethr =  5.43E-03,  avg # of iterations =  2.0

     negative rho (up, down):  1.594E-04 0.000E+00

     total cpu time spent up to now is        4.8 secs

     total energy              =     -71.01444048 Ry
     estimated scf accuracy    <       0.11763415 Ry

     iteration #  3     ecut=    60.00 Ry     beta= 0.50
     Davidson diagonalization with overlap
     ethr =  7.35E-04,  avg # of iterations =  2.0

     negative rho (up, down):  9.178E-07 0.000E+00

     total cpu time spent up to now is        6.0 secs

     total energy              =     -71.01665201 Ry
     estimated scf accuracy    <       0.01799038 Ry

     iteration #  4     ecut=    60.00 Ry     beta= 0.50
     Davidson diagonalization with overlap
     ethr =  1.12E-04,  avg # of iterations =  3.0

     negative rho (up, down):  1.360E-07 0.000E+00

     total cpu time spent up to now is        7.3 secs

     total energy              =     -71.01988545 Ry
     estimated scf accuracy    <       0.01432399 Ry

     iteration #  5     ecut=    60.00 Ry     beta= 0.50
     Davidson diagonalization with overlap
     ethr =  8.95E-05,  avg # of iterations =  2.0

     total cpu time spent up to now is        8.5 secs

     total energy              =     -71.02096717 Ry
     estimated scf accuracy    <       0.00112274 Ry

     iteration #  6     ecut=    60.00 Ry     beta= 0.50
     Davidson diagonalization with overlap
     ethr =  7.02E-06,  avg # of iterations =  3.0

     total cpu time spent up to now is        9.8 secs

     total energy              =     -71.02122546 Ry
     estimated scf accuracy    <       0.00004735 Ry

     iteration #  7     ecut=    60.00 Ry     beta= 0.50
     Davidson diagonalization with overlap
     ethr =  2.96E-07,  avg # of iterations =  2.0

     total cpu time spent up to now is       11.0 secs

     total energy              =     -71.02123702 Ry
     estimated scf accuracy    <       0.00000534 Ry

     iteration #  8     ecut=    60.00 Ry     beta= 0.50
     Davidson diagonalization with overlap
     ethr =  3.34E-08,  avg # of iterations =  3.0

     total cpu time spent up to now is       12.3 secs

     total energy              =     -71.02123404 Ry
     estimated scf accuracy    <       0.00002067 Ry

     iteration #  9     ecut=    60.00 Ry     beta= 0.50
     Davidson diagonalization with overlap
     ethr =  3.34E-08,  avg # of iterations =  2.0

     total cpu time spent up to now is       13.6 secs

     total energy              =     -71.02123595 Ry
     estimated scf accuracy    <       0.00000095 Ry

     iteration # 10     ecut=    60.00 Ry     beta= 0.50
     Davidson diagonalization with overlap
     ethr =  5.96E-09,  avg # of iterations =  2.0

     total cpu time spent up to now is       14.9 secs

     total energy              =     -71.02123613 Ry
     estimated scf accuracy    <       0.00000005 Ry

     iteration # 11     ecut=    60.00 Ry     beta= 0.50
     Davidson diagonalization with overlap
     ethr =  3.23E-10,  avg # of iterations =  3.0

     total cpu time spent up to now is       16.2 secs

     End of self-consistent calculation

          k = 0.0000 0.0000 0.0000 ( 45812 PWs)   bands (ev):

   -26.0014 -24.2877 -13.7657 -12.2625 -10.0602  -8.4497  -7.7796  -6.3537

     highest occupied level (ev):    -6.3537

!    total energy              =     -71.02123615 Ry
     estimated scf accuracy    <          6.2E-09 Ry

     The total energy is the sum of the following terms:
     one-electron contribution =    -149.29451949 Ry
     hartree contribution      =      77.78472819 Ry
     xc contribution           =     -19.62495191 Ry
     ewald contribution        =      20.11350705 Ry

     convergence has been achieved in  11 iterations

     Forces acting on atoms (cartesian axes, Ry/au):

     atom    1 type  1   force =     0.01504465   -0.00106326    0.00249907
     atom    2 type  2   force =    -0.01560050    0.00164573   -0.00280207
     atom    3 type  2   force =     0.00066439   -0.00065244    0.00036945
     atom    4 type  1   force =    -0.00015868    0.00017993    0.00018803
     atom    5 type  2   force =     0.00006065   -0.00006688   -0.00028987
     atom    6 type  2   force =    -0.00001051   -0.00004307    0.00003539
     The non-local contrib.  to forces
     atom    1 type  1   force =     0.75287111   -1.63620071    1.07628242
     atom    2 type  2   force =    -0.19442535    0.02380180   -0.04017930
     atom    3 type  2   force =     0.10683141    0.16613658   -0.08471248
     atom    4 type  1   force =     1.28726862    1.56900400   -0.62730364
     atom    5 type  2   force =    -0.11161968   -0.00547048    0.18524735
     atom    6 type  2   force =    -0.05226452   -0.17464750   -0.11623432
     The ionic contribution  to forces
     atom    1 type  1   force =    -4.38330210    3.46556991   -2.73681371
     atom    2 type  2   force =     2.45875457   -0.40677001    0.52960763
     atom    3 type  2   force =    -2.24103831   -2.98242346    1.46677086
     atom    4 type  1   force =     0.57671808   -3.28683946    1.85238004
     atom    5 type  2   force =     2.32294673    0.06841530   -3.29349943
     atom    6 type  2   force =     1.26592104    3.14204771    2.18155460
     The local contribution  to forces
     atom    1 type  1   force =     3.66656649   -1.87751835    1.69406242
     atom    2 type  2   force =    -2.27993280    0.38462987   -0.49227223
     atom    3 type  2   force =     2.13489006    2.81566165   -1.38173453
     atom    4 type  1   force =    -1.82687105    1.76310556   -1.24281196
     atom    5 type  2   force =    -2.21125608   -0.06300189    3.10792818
     atom    6 type  2   force =    -1.21365593   -2.96743562   -2.06532276
     The core correction contribution to forces
     atom    1 type  1   force =    -0.02111705    0.04713872   -0.03109877
     atom    2 type  2   force =     0.00000000    0.00000000    0.00000000
     atom    3 type  2   force =     0.00000000    0.00000000    0.00000000
     atom    4 type  1   force =    -0.03727396   -0.04509612    0.01789367
     atom    5 type  2   force =     0.00000000    0.00000000    0.00000000
     atom    6 type  2   force =     0.00000000    0.00000000    0.00000000
     The Hubbard contrib.    to forces
     atom    1 type  1   force =     0.00000000    0.00000000    0.00000000
     atom    2 type  2   force =     0.00000000    0.00000000    0.00000000
     atom    3 type  2   force =     0.00000000    0.00000000    0.00000000
     atom    4 type  1   force =     0.00000000    0.00000000    0.00000000
     atom    5 type  2   force =     0.00000000    0.00000000    0.00000000
     atom    6 type  2   force =     0.00000000    0.00000000    0.00000000
     The SCF correction term to forces
     atom    1 type  1   force =     0.00003947   -0.00004090    0.00002948
     atom    2 type  2   force =     0.00001635   -0.00000401    0.00000461
     atom    3 type  2   force =    -0.00000551   -0.00001529    0.00000838
     atom    4 type  1   force =     0.00001288    0.00001786   -0.00000731
     atom    5 type  2   force =     0.00000295    0.00000211   -0.00000320
     atom    6 type  2   force =     0.00000217    0.00000426    0.00000064

     Total force =     0.022110     Total SCF correction =     0.000073

     init_run     :      2.13s CPU      2.28s WALL (       1 calls)
     electrons    :     12.60s CPU     13.75s WALL (       1 calls)
     forces       :      0.94s CPU      1.04s WALL (       1 calls)

     Called by init_run:
     wfcinit      :      0.24s CPU      0.26s WALL (       1 calls)
     potinit      :      0.66s CPU      0.75s WALL (       1 calls)
     hinit0       :      1.00s CPU      1.03s WALL (       1 calls)

     Called by electrons:
     c_bands      :      5.44s CPU      5.73s WALL (      11 calls)
     sum_band     :      1.73s CPU      1.84s WALL (      11 calls)
     v_of_rho     :      4.56s CPU      5.22s WALL (      12 calls)
     mix_rho      :      1.02s CPU      1.13s WALL (      11 calls)

     Called by c_bands:
     init_us_2    :      0.15s CPU      0.16s WALL (      23 calls)
     init_us_2:cp :      0.15s CPU      0.16s WALL (      23 calls)
     regterg      :      5.17s CPU      5.44s WALL (      11 calls)

     Called by *egterg:
     rdiaghg      :      0.01s CPU      0.01s WALL (      37 calls)
     h_psi        :      5.06s CPU      5.33s WALL (      38 calls)
     g_psi        :      0.02s CPU      0.02s WALL (      26 calls)

     Called by h_psi:
     h_psi:calbec :      0.16s CPU      0.17s WALL (      38 calls)
     vloc_psi     :      4.74s CPU      5.00s WALL (      38 calls)
     add_vuspsi   :      0.13s CPU      0.13s WALL (      38 calls)

     General routines
     calbec       :      0.18s CPU      0.19s WALL (      42 calls)
     fft          :      3.21s CPU      3.65s WALL (     104 calls)
     ffts         :      0.28s CPU      0.31s WALL (      11 calls)
     fftw         :      4.07s CPU      4.31s WALL (     324 calls)

     Parallel routines

     PWSCF        :     15.77s CPU     17.23s WALL


   This run was terminated on:  14: 2: 6  12May2025            

=------------------------------------------------------------------------------=
   JOB DONE.
=------------------------------------------------------------------------------=
