
     Program PWSCF v.6.8 starts on 28Apr2025 at 10:44:45 

     This program is part of the open-source Quantum ESPRESSO suite
     for quantum simulation of materials; please cite
         "P. Giannozzi et al., J. Phys.:Condens. Matter 21 395502 (2009);
         "P. Giannozzi et al., J. Phys.:Condens. Matter 29 465901 (2017);
         "P. Giannozzi et al., J. Chem. Phys. 152 154105 (2020);
          URL http://www.quantum-espresso.org", 
     in publications or presentations arising from this work. More details at
     http://www.quantum-espresso.org/quote

     Parallel version (MPI & OpenMP), running on      56 processor cores
     Number of MPI processes:                56
     Threads/MPI process:                     1

     MPI processes distributed on     1 nodes
     R & G space division:  proc/nbgrp/npool/nimage =      56
     186340 MiB available memory on the printing compute node when the environment starts
 
     Reading input from surface_relax.in
Warning: card &CELL ignored
Warning: card / ignored
Warning: card &FCP ignored
Warning: card / ignored
Warning: card &RISM ignored
Warning: card / ignored

     Current dimensions of program PWSCF are:
     Max number of different atomic species (ntypx) = 10
     Max number of k-points (npk) =  40000
     Max angular momentum in pseudopotentials (lmaxx) =  4
     Found symmetry operation: I + (  0.0000  0.5000  0.0000)
     This is a supercell, fractional translations are disabled
     Message from routine setup:
     using ibrav=0 with symmetry is DISCOURAGED, use correct ibrav instead

     Subspace diagonalization in iterative solution of the eigenvalue problem:
     one sub-group per band group will be used
     scalapack distributed-memory algorithm (size of sub-group:  7*  7 procs)

 
     Parallelization info
     --------------------
     sticks:   dense  smooth     PW     G-vecs:    dense   smooth      PW
     Min         135     135     36                17417    17417    2384
     Max         136     136     37                17432    17432    2391
     Sum        7603    7603   2021               975779   975779  133763
 
     Using Slab Decomposition
 


     bravais-lattice index     =            0
     lattice parameter (alat)  =      30.3318  a.u.
     unit-cell volume          =   15544.5964 (a.u.)^3
     number of atoms/cell      =           64
     number of atomic types    =            1
     number of electrons       =       896.00
     number of Kohn-Sham states=          538
     kinetic-energy cutoff     =      60.0000  Ry
     charge density cutoff     =     240.0000  Ry
     scf convergence threshold =      1.0E-06
     mixing beta               =       0.4000
     number of iterations used =            8  plain     mixing
     energy convergence thresh.=      1.0E-04
     force convergence thresh. =      1.0E-03
     Exchange-correlation= PBE
                           (   1   4   3   4   0   0   0)
     nstep                     =           50


     celldm(1)=  30.331824  celldm(2)=   0.000000  celldm(3)=   0.000000
     celldm(4)=   0.000000  celldm(5)=   0.000000  celldm(6)=   0.000000

     crystal axes: (cart. coord. in units of alat)
               a(1) = (   1.000000   0.000000   0.000000 )  
               a(2) = (  -0.250000   0.433013   0.000000 )  
               a(3) = (   0.000000   0.000000   1.286421 )  

     reciprocal axes: (cart. coord. in units 2 pi/alat)
               b(1) = (  1.000000  0.577350  0.000000 )  
               b(2) = (  0.000000  2.309401  0.000000 )  
               b(3) = (  0.000000  0.000000  0.777350 )  


     PseudoPot. # 1 for Ge read from file:
     ./Ge.upf
     MD5 check sum: 087fa14d6c89b52166990835c3b338da
     Pseudo is Norm-conserving + core correction, Zval = 14.0
     Generated using ONCVPSP code by D. R. Hamann
     Using radial grid of 1560 points,  6 beta functions with: 
                l(1) =   0
                l(2) =   0
                l(3) =   1
                l(4) =   1
                l(5) =   2
                l(6) =   2

     atomic species   valence    mass     pseudopotential
        Ge            14.00    72.63000     Ge( 1.00)

      2 Sym. Ops. (no inversion) found



   Cartesian axes

     site n.     atom                  positions (alat units)
         1           Ge  tau(   1) = (   0.1250000   0.0721688   0.3625399  )
         2           Ge  tau(   2) = (  -0.1250000   0.2165064   0.3115088  )
         3           Ge  tau(   3) = (   0.0000001   0.1443376   0.5666641  )
         4           Ge  tau(   4) = (   0.1250000   0.0721688   0.5156330  )
         5           Ge  tau(   5) = (  -0.1249999   0.2165063   0.7707882  )
         6           Ge  tau(   6) = (   0.0000001   0.1443375   0.7197572  )
         7           Ge  tau(   7) = (   0.1250001   0.0721687   0.9749124  )
         8           Ge  tau(   8) = (  -0.1249999   0.2165063   0.9238814  )
         9           Ge  tau(   9) = (   0.0000001   0.2886751   0.3625399  )
        10           Ge  tau(  10) = (   0.0000000  -0.0000000   0.3115088  )
        11           Ge  tau(  11) = (  -0.1249999   0.3608439   0.5666641  )
        12           Ge  tau(  12) = (   0.0000001   0.2886751   0.5156330  )
        13           Ge  tau(  13) = (   0.0000001  -0.0000000   0.7707882  )
        14           Ge  tau(  14) = (  -0.1249999   0.3608439   0.7197572  )
        15           Ge  tau(  15) = (   0.0000001   0.2886751   0.9749124  )
        16           Ge  tau(  16) = (   0.0000001  -0.0000000   0.9238814  )
        17           Ge  tau(  17) = (   0.3750000   0.0721688   0.3625399  )
        18           Ge  tau(  18) = (   0.1250000   0.2165064   0.3115088  )
        19           Ge  tau(  19) = (   0.2500001   0.1443376   0.5666641  )
        20           Ge  tau(  20) = (   0.3750000   0.0721688   0.5156330  )
        21           Ge  tau(  21) = (   0.1250001   0.2165063   0.7707882  )
        22           Ge  tau(  22) = (   0.2500001   0.1443375   0.7197572  )
        23           Ge  tau(  23) = (   0.3750001   0.0721687   0.9749124  )
        24           Ge  tau(  24) = (   0.1250001   0.2165063   0.9238814  )
        25           Ge  tau(  25) = (   0.2500001   0.2886751   0.3625399  )
        26           Ge  tau(  26) = (   0.2500000  -0.0000000   0.3115088  )
        27           Ge  tau(  27) = (   0.1250001   0.3608439   0.5666641  )
        28           Ge  tau(  28) = (   0.2500001   0.2886751   0.5156330  )
        29           Ge  tau(  29) = (   0.2500001  -0.0000000   0.7707882  )
        30           Ge  tau(  30) = (   0.1250001   0.3608439   0.7197572  )
        31           Ge  tau(  31) = (   0.2500001   0.2886751   0.9749124  )
        32           Ge  tau(  32) = (   0.2500001  -0.0000000   0.9238814  )
        33           Ge  tau(  33) = (   0.6250000   0.0721688   0.3625399  )
        34           Ge  tau(  34) = (   0.3750000   0.2165064   0.3115088  )
        35           Ge  tau(  35) = (   0.5000001   0.1443376   0.5666641  )
        36           Ge  tau(  36) = (   0.6250000   0.0721688   0.5156330  )
        37           Ge  tau(  37) = (   0.3750001   0.2165063   0.7707882  )
        38           Ge  tau(  38) = (   0.5000001   0.1443375   0.7197572  )
        39           Ge  tau(  39) = (   0.6250001   0.0721687   0.9749124  )
        40           Ge  tau(  40) = (   0.3750001   0.2165063   0.9238814  )
        41           Ge  tau(  41) = (   0.5000001   0.2886751   0.3625399  )
        42           Ge  tau(  42) = (   0.5000000  -0.0000000   0.3115088  )
        43           Ge  tau(  43) = (   0.3750001   0.3608439   0.5666641  )
        44           Ge  tau(  44) = (   0.5000001   0.2886751   0.5156330  )
        45           Ge  tau(  45) = (   0.5000001  -0.0000000   0.7707882  )
        46           Ge  tau(  46) = (   0.3750001   0.3608439   0.7197572  )
        47           Ge  tau(  47) = (   0.5000001   0.2886751   0.9749124  )
        48           Ge  tau(  48) = (   0.5000001  -0.0000000   0.9238814  )
        49           Ge  tau(  49) = (   0.8750000   0.0721688   0.3625399  )
        50           Ge  tau(  50) = (   0.6250000   0.2165064   0.3115088  )
        51           Ge  tau(  51) = (   0.7500001   0.1443376   0.5666641  )
        52           Ge  tau(  52) = (   0.8750000   0.0721688   0.5156330  )
        53           Ge  tau(  53) = (   0.6250001   0.2165063   0.7707882  )
        54           Ge  tau(  54) = (   0.7500001   0.1443375   0.7197572  )
        55           Ge  tau(  55) = (   0.8750001   0.0721687   0.9749124  )
        56           Ge  tau(  56) = (   0.6250001   0.2165063   0.9238814  )
        57           Ge  tau(  57) = (   0.7500001   0.2886751   0.3625399  )
        58           Ge  tau(  58) = (   0.7500000  -0.0000000   0.3115088  )
        59           Ge  tau(  59) = (   0.6250001   0.3608439   0.5666641  )
        60           Ge  tau(  60) = (   0.7500001   0.2886751   0.5156330  )
        61           Ge  tau(  61) = (   0.7500001  -0.0000000   0.7707882  )
        62           Ge  tau(  62) = (   0.6250001   0.3608439   0.7197572  )
        63           Ge  tau(  63) = (   0.7500001   0.2886751   0.9749124  )
        64           Ge  tau(  64) = (   0.7500001  -0.0000000   0.9238814  )

     number of k points=     2  Gaussian smearing, width (Ry)=  0.0100
                       cart. coord. in units 2pi/alat
        k(    1) = (   0.0000000   0.0000000   0.0000000), wk =   1.0000000
        k(    2) = (   0.0000000  -1.1547005   0.0000000), wk =   1.0000000

     Dense  grid:   975779 G-vectors     FFT dimensions: ( 150,  75, 200)

     Estimated max dynamical RAM per process >     185.55 MB

     Estimated total dynamical RAM >      10.15 GB

 %%%%%%%%%%%%%%%%%%%%%%%%%%%%%%%%%%%%%%%%%%%%%%%%%%%%%%%%%%%%%%%%%%%%%%%%%%%%%%
     Error in routine sym_rho_init_shell (2):
     lone vector
 %%%%%%%%%%%%%%%%%%%%%%%%%%%%%%%%%%%%%%%%%%%%%%%%%%%%%%%%%%%%%%%%%%%%%%%%%%%%%%

     stopping ...

 %%%%%%%%%%%%%%%%%%%%%%%%%%%%%%%%%%%%%%%%%%%%%%%%%%%%%%%%%%%%%%%%%%%%%%%%%%%%%%
     Error in routine sym_rho_init_shell (2):
     lone vector
 %%%%%%%%%%%%%%%%%%%%%%%%%%%%%%%%%%%%%%%%%%%%%%%%%%%%%%%%%%%%%%%%%%%%%%%%%%%%%%

     stopping ...

 %%%%%%%%%%%%%%%%%%%%%%%%%%%%%%%%%%%%%%%%%%%%%%%%%%%%%%%%%%%%%%%%%%%%%%%%%%%%%%
     Error in routine sym_rho_init_shell (2):
     lone vector
 %%%%%%%%%%%%%%%%%%%%%%%%%%%%%%%%%%%%%%%%%%%%%%%%%%%%%%%%%%%%%%%%%%%%%%%%%%%%%%

     stopping ...

 %%%%%%%%%%%%%%%%%%%%%%%%%%%%%%%%%%%%%%%%%%%%%%%%%%%%%%%%%%%%%%%%%%%%%%%%%%%%%%
     Error in routine sym_rho_init_shell (2):
     lone vector
 %%%%%%%%%%%%%%%%%%%%%%%%%%%%%%%%%%%%%%%%%%%%%%%%%%%%%%%%%%%%%%%%%%%%%%%%%%%%%%

     stopping ...
